HEADER
"PSFversion" "1.00"
"simulator" "spectre"
"version" "19.1.0.237.isr3"
"date" "1:20:11 PM, Fri Aug 26, 2022"
"design" "// Generated for: spectre"
"analysis type" "tran"
"analysis name" "test1"
"analysis description" "Transient Analysis `test1': time = (0 s -> 50 ns)"
"xVecSorted" "ascending"
"tolerance.relative" 0.00100000
"start" 0.00000
"outputstart" 0.00000
"stop" 5.00000e-08
"step" 5.00000e-11
"istep" 0.00100000
"maxstep" 1.00000e-09
"ic" "all"
"useprevic" "no"
"skipdc" "no"
"reltol" 0.00100000
"abstol(V)" 1.00000e-06
"abstol(I)" 1.00000e-12
"temp" 27.0000
"tnom" 27.0000
"tempeffects" "all"
"errpreset" "moderate"
"method" "traponly"
"lteratio" 3.50000
"relref" "sigglobal"
"cmin" 0.00000
"gmin" 1.00000e-12
TYPE
"sweep" FLOAT DOUBLE PROP(
"key" "sweep"
)
"LogicV" FLOAT DOUBLE PROP(
"key" "node"
)
"Tau" FLOAT DOUBLE PROP(
"units" "N*m"
"key" "node"
"tolerance" 1.00000e-06
)
"Alpha" FLOAT DOUBLE PROP(
"units" "rads/s^2"
"key" "node"
"tolerance" 1.00000e-06
)
"Omega" FLOAT DOUBLE PROP(
"units" "rads/s"
"key" "node"
"tolerance" 1.00000e-06
)
"Theta" FLOAT DOUBLE PROP(
"units" "rads"
"key" "node"
"tolerance" 1.00000e-06
)
"F" FLOAT DOUBLE PROP(
"units" "N"
"key" "node"
"tolerance" 1.00000e-06
)
"Imp" FLOAT DOUBLE PROP(
"units" "m/s^3"
"key" "node"
"tolerance" 1.00000e-06
)
"Acc" FLOAT DOUBLE PROP(
"units" "m/s^2"
"key" "node"
"tolerance" 1.00000e-06
)
"Vel" FLOAT DOUBLE PROP(
"units" "m/s"
"key" "node"
"tolerance" 1.00000e-06
)
"Pos" FLOAT DOUBLE PROP(
"units" "m"
"key" "node"
"tolerance" 1.00000e-06
)
"Phi" FLOAT DOUBLE PROP(
"units" "Wb"
"key" "node"
"tolerance" 1.00000e-09
)
"V" FLOAT DOUBLE PROP(
"units" "V"
"key" "node"
"tolerance" 1.00000e-06
)
"I" FLOAT DOUBLE PROP(
"units" "A"
"key" "branch"
"tolerance" 1.00000e-12
)
"MMF" FLOAT DOUBLE PROP(
"units" "A*turn"
"key" "node"
"tolerance" 1.00000e-12
)
"Wb" FLOAT DOUBLE PROP(
"units" "Wb"
"key" "node"
"tolerance" 1.00000e-09
)
"Temp" FLOAT DOUBLE PROP(
"units" "C"
"key" "node"
"tolerance" 0.000100000
)
"Pwr" FLOAT DOUBLE PROP(
"units" "W"
"key" "node"
"tolerance" 1.00000e-09
)
"U" FLOAT DOUBLE PROP(
"units" ""
"key" "node"
"tolerance" 1.00000e-06
)
"V/Sec" FLOAT DOUBLE PROP(
"units" "V/s"
"key" "node"
"tolerance" 0.000100000
)
"I/Sec" FLOAT DOUBLE PROP(
"units" "A/s"
"key" "node"
"tolerance" 1.00000e-06
)
"1/Sec" FLOAT DOUBLE PROP(
"units" "1/s"
"key" "node"
"tolerance" 0.000100000
)
"HOD" FLOAT DOUBLE PROP(
"units" ""
"key" "node"
"tolerance" 0.0100000
)
"Q" FLOAT DOUBLE PROP(
"units" "coul"
"key" "node"
"tolerance" 1.00000e-14
)
SWEEP
"time" "sweep" PROP(
"sweep_direction" 0
"units" "s"
"plot" 0
"grid" 1
)
TRACE
"GND:p" "I"
"in0" "V"
"in1" "V"
"net13" "V"
"out" "V"
"V0:p" "I"
"V1:p" "I"
"VDD:p" "I"
"vdd" "V"
"vss" "V"
VALUE
"time" 0.000000000000000e+00
"GND:p" 1.513562509904299e-10
"in0" 0.000000000000000e+00
"in1" 1.200000000000000e+00
"net13" 2.522254161175162e-07
"out" 1.199998608538689e+00
"V0:p" 3.016577400687568e-11
"V1:p" -2.292918816276842e-11
"VDD:p" -1.585927201598540e-10
"vdd" 1.200000000000000e+00
"vss" 0.000000000000000e+00
"time" 3.275314075270747e-12
"GND:p" 6.140133164675164e-06
"in0" 7.860753780649792e-02
"in1" 1.200000000000000e+00
"net13" 9.493176536384439e-03
"out" 1.234874538913725e+00
"V0:p" -3.005684270829036e-05
"V1:p" 4.309354968939331e-06
"VDD:p" 1.960735457467570e-05
"vdd" 1.200000000000000e+00
"vss" 0.000000000000000e+00
"time" 6.299273449040869e-12
"GND:p" 7.616744496558249e-06
"in0" 1.511825627769808e-01
"in1" 1.200000000000000e+00
"net13" 1.317169439831305e-02
"out" 1.260985975914344e+00
"V0:p" -3.183429099606826e-05
"V1:p" 3.121214001831145e-06
"VDD:p" 2.109633249767884e-05
"vdd" 1.200000000000000e+00
"vss" 0.000000000000000e+00
"time" 1.234719219658111e-11
"GND:p" 9.063161100988472e-06
"in0" 2.963326127179467e-01
"in1" 1.200000000000000e+00
"net13" 1.656120348796947e-02
"out" 1.305154314090884e+00
"V0:p" -3.408817564622732e-05
"V1:p" 2.057489612089306e-06
"VDD:p" 2.296752493314964e-05
"vdd" 1.200000000000000e+00
"vss" 0.000000000000000e+00
"time" 1.811791976024682e-11
"GND:p" 1.259849654723087e-05
"in0" 4.348300742459237e-01
"in1" 1.200000000000000e+00
"net13" 2.205258707934189e-02
"out" 1.335644179820736e+00
"V0:p" -3.868434503393768e-05
"V1:p" 2.736732464792780e-06
"VDD:p" 2.334911602191409e-05
"vdd" 1.200000000000000e+00
"vss" 0.000000000000000e+00
"time" 2.573297173009184e-11
"GND:p" 2.892682722570695e-05
"in0" 6.175913215222042e-01
"in1" 1.200000000000000e+00
"net13" 5.128539193014117e-02
"out" 1.337351726464511e+00
"V0:p" -4.872938921284069e-05
"V1:p" 2.005971041928031e-06
"VDD:p" 1.779659094520565e-05
"vdd" 1.200000000000000e+00
"vss" 0.000000000000000e+00
"time" 3.243886029965058e-11
"GND:p" 4.880893246674855e-05
"in0" 7.785326471916139e-01
"in1" 1.200000000000000e+00
"net13" 9.205574046332436e-02
"out" 1.266412461414889e+00
"V0:p" -5.534305076268594e-05
"V1:p" -1.914204368750899e-06
"VDD:p" 8.448322664688426e-06
"vdd" 1.200000000000000e+00
"vss" 0.000000000000000e+00
"time" 3.799513505676049e-11
"GND:p" 6.718241944950710e-05
"in0" 9.118832413622516e-01
"in1" 1.200000000000000e+00
"net13" 1.322346293641441e-01
"out" 1.122589644507463e+00
"V0:p" -5.761820888207975e-05
"V1:p" -2.354174001861584e-06
"VDD:p" -7.210036565565975e-06
"vdd" 1.200000000000000e+00
"vss" 0.000000000000000e+00
"time" 4.305214721129621e-11
"GND:p" 8.174298203210702e-05
"in0" 1.033251533071109e+00
"in1" 1.200000000000000e+00
"net13" 1.689865830188079e-01
"out" 8.788147229678489e-01
"V0:p" -5.945153114874917e-05
"V1:p" -9.527983396972187e-06
"VDD:p" -1.276346748638528e-05
"vdd" 1.200000000000000e+00
"vss" 0.000000000000000e+00
"time" 4.707500801678381e-11
"GND:p" 9.279635460715173e-05
"in0" 1.129800192402811e+00
"in1" 1.200000000000000e+00
"net13" 1.972133279182494e-01
"out" 6.227484470927761e-01
"V0:p" -6.762721156654976e-05
"V1:p" -8.556722063282693e-06
"VDD:p" -1.661242097731977e-05
"vdd" 1.200000000000000e+00
"vss" 0.000000000000000e+00
"time" 5.000000000000000e-11
"GND:p" 9.134240800971639e-05
"in0" 1.200000000000000e+00
"in1" 1.200000000000000e+00
"net13" 2.019358576894370e-01
"out" 4.425863332369347e-01
"V0:p" -6.907806301326611e-05
"V1:p" -1.366920672201495e-05
"VDD:p" -8.595138274434440e-06
"vdd" 1.200000000000000e+00
"vss" 0.000000000000000e+00
"time" 5.103568162221951e-11
"GND:p" 8.212676989440195e-05
"in0" 1.200000000000000e+00
"in1" 1.200000000000000e+00
"net13" 1.851466150060964e-01
"out" 3.836344217951946e-01
"V0:p" -4.423519326842318e-05
"V1:p" -1.839820846842017e-05
"VDD:p" -1.949336815755828e-05
"vdd" 1.200000000000000e+00
"vss" 0.000000000000000e+00
"time" 5.265340829400111e-11
"GND:p" 7.089462370067577e-05
"in0" 1.200000000000000e+00
"in1" 1.200000000000000e+00
"net13" 1.586556265553901e-01
"out" 3.051125870493766e-01
"V0:p" -4.144221718025855e-05
"V1:p" -1.636671947755154e-05
"VDD:p" -1.308568704286633e-05
"vdd" 1.200000000000000e+00
"vss" 0.000000000000000e+00
"time" 5.408893068170933e-11
"GND:p" 6.207828824243171e-05
"in0" 1.200000000000000e+00
"in1" 1.200000000000000e+00
"net13" 1.356519326630652e-01
"out" 2.496962857169809e-01
"V0:p" -3.477343202691226e-05
"V1:p" -1.496876941891912e-05
"VDD:p" -1.233608679659990e-05
"vdd" 1.200000000000000e+00
"vss" 0.000000000000000e+00
"time" 5.695997545712578e-11
"GND:p" 4.458955507126449e-05
"in0" 1.200000000000000e+00
"in1" 1.200000000000000e+00
"net13" 9.569824588231271e-02
"out" 1.662807149132471e-01
"V0:p" -2.690884418493396e-05
"V1:p" -1.123952610925395e-05
"VDD:p" -6.441184777077240e-06
"vdd" 1.200000000000000e+00
"vss" 0.000000000000000e+00
"time" 5.959845935371948e-11
"GND:p" 3.250324085549882e-05
"in0" 1.200000000000000e+00
"in1" 1.200000000000000e+00
"net13" 6.725271904987533e-02
"out" 1.139001551073446e-01
"V0:p" -1.776503169135411e-05
"V1:p" -8.580145224159188e-06
"VDD:p" -6.158063939984754e-06
"vdd" 1.200000000000000e+00
"vss" 0.000000000000000e+00
"time" 6.304038697389211e-11
"GND:p" 1.995077129240315e-05
"in0" 1.200000000000000e+00
"in1" 1.200000000000000e+00
"net13" 4.129991463844117e-02
"out" 6.861056966466328e-02
"V0:p" -1.260173794589308e-05
"V1:p" -5.259177155348083e-06
"VDD:p" -2.089856191163001e-06
"vdd" 1.200000000000000e+00
"vss" 0.000000000000000e+00
"time" 6.673761080597819e-11
"GND:p" 1.214265115158792e-05
"in0" 1.200000000000000e+00
"in1" 1.200000000000000e+00
"net13" 2.391214027959064e-02
"out" 3.939282532130885e-02
"V0:p" -5.956911269301590e-06
"V1:p" -3.368593770520570e-06
"VDD:p" -2.817146111764515e-06
"vdd" 1.200000000000000e+00
"vss" 0.000000000000000e+00
"time" 7.115379227045374e-11
"GND:p" 5.859937469604110e-06
"in0" 1.200000000000000e+00
"in1" 1.200000000000000e+00
"net13" 1.219133468245978e-02
"out" 1.996613103096836e-02
"V0:p" -4.446143711036589e-06
"V1:p" -1.514998227119276e-06
"VDD:p" 1.012044685505059e-07
"vdd" 1.200000000000000e+00
"vss" 0.000000000000000e+00
"time" 7.611361609115671e-11
"GND:p" 3.095757985239345e-06
"in0" 1.200000000000000e+00
"in1" 1.200000000000000e+00
"net13" 5.609950810232860e-03
"out" 9.170596715197698e-03
"V0:p" -7.266266283424050e-07
"V1:p" -9.288138403132676e-07
"VDD:p" -1.440317516582533e-06
"vdd" 1.200000000000000e+00
"vss" 0.000000000000000e+00
"time" 8.211036156314000e-11
"GND:p" 8.211039450634181e-07
"in0" 1.200000000000000e+00
"in1" 1.200000000000000e+00
"net13" 2.127840653565840e-03
"out" 3.470077894932502e-03
"V0:p" -1.535370374934677e-06
"V1:p" -1.420218377469556e-07
"VDD:p" 8.562882676171030e-07
"vdd" 1.200000000000000e+00
"vss" 0.000000000000000e+00
"time" 8.944615918380308e-11
"GND:p" 5.714585855029821e-07
"in0" 1.200000000000000e+00
"in1" 1.200000000000000e+00
"net13" 6.101302055836876e-04
"out" 9.953629200727763e-04
"V0:p" 7.313448603991522e-07
"V1:p" -2.392569258463004e-07
"VDD:p" -1.063546520054802e-06
"vdd" 1.200000000000000e+00
"vss" 0.000000000000000e+00
"time" 9.907227627291593e-11
"GND:p" -2.100789030928790e-07
"in0" 1.200000000000000e+00
"in1" 1.200000000000000e+00
"net13" 9.422615204803236e-05
"out" 1.522559559341075e-04
"V0:p" -9.399512601346809e-07
"V1:p" 1.404598720305303e-07
"VDD:p" 1.009570291196027e-06
"vdd" 1.200000000000000e+00
"vss" 0.000000000000000e+00
"time" 1.123845284971208e-10
"GND:p" 2.588421921417498e-07
"in0" 1.200000000000000e+00
"in1" 1.200000000000000e+00
"net13" -2.287115783068151e-06
"out" -3.481977505725292e-06
"V0:p" 9.118953871140894e-07
"V1:p" -1.538063310053116e-07
"VDD:p" -1.016931248249497e-06
"vdd" 1.200000000000000e+00
"vss" 0.000000000000000e+00
"time" 1.328097015999068e-10
"GND:p" -2.591939805370864e-07
"in0" 1.200000000000000e+00
"in1" 1.200000000000000e+00
"net13" 2.060258268692799e-07
"out" -6.904663906858594e-08
"V0:p" -9.116015312855827e-07
"V1:p" 1.539050010261773e-07
"VDD:p" 1.016890510795436e-06
"vdd" 1.200000000000000e+00
"vss" 0.000000000000000e+00
"time" 1.689312706109210e-10
"GND:p" 2.595575018889584e-07
"in0" 1.200000000000000e+00
"in1" 1.200000000000000e+00
"net13" 2.212036899130912e-07
"out" 8.516504266723292e-07
"V0:p" 9.114916747512824e-07
"V1:p" -1.540454139354564e-07
"VDD:p" -1.017003762703745e-06
"vdd" 1.200000000000000e+00
"vss" 0.000000000000000e+00
"time" 2.411744086329493e-10
"GND:p" -2.591243611486021e-07
"in0" 1.200000000000000e+00
"in1" 1.200000000000000e+00
"net13" 5.238001158286079e-07
"out" 5.796686934667172e-07
"V0:p" -9.116455614804103e-07
"V1:p" 1.538962369443221e-07
"VDD:p" 1.016873685683637e-06
"vdd" 1.200000000000000e+00
"vss" 0.000000000000000e+00
"time" 3.856606846770060e-10
"GND:p" 2.595592384131197e-07
"in0" 1.200000000000000e+00
"in1" 1.200000000000000e+00
"net13" 2.213434248785941e-07
"out" 8.177004402679400e-07
"V0:p" 9.114925513878245e-07
"V1:p" -1.540513418003008e-07
"VDD:p" -1.017000447999589e-06
"vdd" 1.200000000000000e+00
"vss" 0.000000000000000e+00
"time" 6.746332367651193e-10
"GND:p" -2.591257420776596e-07
"in0" 1.200000000000000e+00
"in1" 1.200000000000000e+00
"net13" 5.202550588874459e-07
"out" 5.882696668351286e-07
"V0:p" -9.116456718983039e-07
"V1:p" 1.538992233442636e-07
"VDD:p" 1.016872190630650e-06
"vdd" 1.200000000000000e+00
"vss" 0.000000000000000e+00
"time" 1.252578340941346e-09
"GND:p" 2.595600662437081e-07
"in0" 1.200000000000000e+00
"in1" 1.200000000000000e+00
"net13" 2.220661216722055e-07
"out" 8.112355529110565e-07
"V0:p" 9.114925229993255e-07
"V1:p" -1.540528637137266e-07
"VDD:p" -1.016999725528258e-06
"vdd" 1.200000000000000e+00
"vss" 0.000000000000000e+00
"time" 2.252578340941346e-09
"GND:p" -2.591261774906313e-07
"in0" 1.200000000000000e+00
"in1" 1.200000000000000e+00
"net13" 5.192852155507142e-07
"out" 5.903320357965429e-07
"V0:p" -9.116456537020609e-07
"V1:p" 1.539000120963716e-07
"VDD:p" 1.016871819095267e-06
"vdd" 1.200000000000000e+00
"vss" 0.000000000000000e+00
"time" 3.252578340941346e-09
"GND:p" 2.595604023456150e-07
"in0" 1.200000000000000e+00
"in1" 1.200000000000000e+00
"net13" 2.226213847322681e-07
"out" 8.093696042553488e-07
"V0:p" 9.114924993899711e-07
"V1:p" -1.540534456243378e-07
"VDD:p" -1.016999456110194e-06
"vdd" 1.200000000000000e+00
"vss" 0.000000000000000e+00
"time" 4.252578340941345e-09
"GND:p" -2.591265204075332e-07
"in0" 1.200000000000000e+00
"in1" 1.200000000000000e+00
"net13" 5.187179309000229e-07
"out" 5.921800610914634e-07
"V0:p" -9.116456255513072e-07
"V1:p" 1.539005940056505e-07
"VDD:p" 1.016871551952135e-06
"vdd" 1.200000000000000e+00
"vss" 0.000000000000000e+00
"time" 5.252578340941345e-09
"GND:p" 2.595607520164959e-07
"in0" 1.200000000000000e+00
"in1" 1.200000000000000e+00
"net13" 2.232006563844830e-07
"out" 8.075512517180038e-07
"V0:p" 9.114924667068923e-07
"V1:p" -1.540540275100569e-07
"VDD:p" -1.016999191212277e-06
"vdd" 1.200000000000000e+00
"vss" 0.000000000000000e+00
"time" 6.252578340941345e-09
"GND:p" -2.591268765091488e-07
"in0" 1.200000000000000e+00
"in1" 1.200000000000000e+00
"net13" 5.181275770566736e-07
"out" 5.939650368100433e-07
"V0:p" -9.116455885481325e-07
"V1:p" 1.539011757953481e-07
"VDD:p" 1.016871289260878e-06
"vdd" 1.200000000000000e+00
"vss" 0.000000000000000e+00
"time" 7.252578340941345e-09
"GND:p" 2.595611144324135e-07
"in0" 1.200000000000000e+00
"in1" 1.200000000000000e+00
"net13" 2.238010381922268e-07
"out" 8.057951080504188e-07
"V0:p" 9.114924254320576e-07
"V1:p" -1.540546091738369e-07
"VDD:p" -1.016998930689580e-06
"vdd" 1.200000000000000e+00
"vss" 0.000000000000000e+00
"time" 8.252578340941345e-09
"GND:p" -2.591272449319581e-07
"in0" 1.200000000000000e+00
"in1" 1.200000000000000e+00
"net13" 5.175168963978630e-07
"out" 5.956892564358678e-07
"V0:p" -9.116455432035255e-07
"V1:p" 1.539017572648899e-07
"VDD:p" 1.016871030869541e-06
"vdd" 1.200000000000000e+00
"vss" 0.000000000000000e+00
"time" 9.252578340941346e-09
"GND:p" 2.595614887563582e-07
"in0" 1.200000000000000e+00
"in1" 1.200000000000000e+00
"net13" 2.244209565594489e-07
"out" 8.040983278542751e-07
"V0:p" 9.114923760608686e-07
"V1:p" -1.540551904229312e-07
"VDD:p" -1.016998674393243e-06
"vdd" 1.200000000000000e+00
"vss" 0.000000000000000e+00
"time" 1.005000000000000e-08
"GND:p" -2.591276793571592e-07
"in0" 1.200000000000000e+00
"in1" 1.200000000000000e+00
"net13" 5.168884391251965e-07
"out" 5.977441005003168e-07
"V0:p" -9.116454797696694e-07
"V1:p" 1.539024143583889e-07
"VDD:p" 1.016870744767387e-06
"vdd" 1.200000000000000e+00
"vss" 0.000000000000000e+00
"time" 1.006250000000000e-08
"GND:p" -2.348761841344195e-05
"in0" 8.999999999999775e-01
"in1" 1.200000000000000e+00
"net13" -4.275673196020709e-02
"out" -7.341102529165434e-02
"V0:p" 3.896540220062709e-05
"V1:p" -3.304417640351265e-06
"VDD:p" -1.217336614683387e-05
"vdd" 1.200000000000000e+00
"vss" 0.000000000000000e+00
"time" 1.007528960316090e-08
"GND:p" -3.104446455860407e-05
"in0" 5.930495241384744e-01
"in1" 1.200000000000000e+00
"net13" -5.591266108078329e-02
"out" -1.182693950637952e-01
"V0:p" 5.314616788657195e-05
"V1:p" 6.672863756467552e-07
"VDD:p" -2.276898970361456e-05
"vdd" 1.200000000000000e+00
"vss" 0.000000000000000e+00
"time" 1.008032771878827e-08
"GND:p" -2.619416074575979e-05
"in0" 4.721347490814267e-01
"in1" 1.200000000000000e+00
"net13" -4.696498533635094e-02
"out" -1.147323293223036e-01
"V0:p" 4.831272955907334e-05
"V1:p" 1.936099869206957e-06
"VDD:p" -2.405466868252072e-05
"vdd" 1.200000000000000e+00
"vss" 0.000000000000000e+00
"time" 1.008913642994939e-08
"GND:p" -1.319171355944799e-05
"in0" 2.607256812147358e-01
"in1" 1.200000000000000e+00
"net13" -2.340812649636062e-02
"out" -7.160428419065980e-02
"V0:p" 4.935541719046774e-05
"V1:p" 3.394112453202673e-06
"VDD:p" -3.955781608422225e-05
"vdd" 1.200000000000000e+00
"vss" 0.000000000000000e+00
"time" 1.009456821497469e-08
"GND:p" -5.082804237073254e-06
"in0" 1.303628406073625e-01
"in1" 1.200000000000000e+00
"net13" -8.854239678373111e-03
"out" 8.397815032053915e-03
"V0:p" 3.957272372176838e-05
"V1:p" 5.607177811166137e-06
"VDD:p" -4.009709729586151e-05
"vdd" 1.200000000000000e+00
"vss" 0.000000000000000e+00
"time" 1.009728410748735e-08
"GND:p" -4.497977047038024e-06
"in0" 6.518142030365603e-02
"in1" 1.200000000000000e+00
"net13" -8.374341471394460e-03
"out" 6.474771953715683e-02
"V0:p" 5.114315807563066e-05
"V1:p" 2.484240511219424e-06
"VDD:p" -4.912942153981131e-05
"vdd" 1.200000000000000e+00
"vss" 0.000000000000000e+00
"time" 1.010000000000000e-08
"GND:p" -4.404439086101954e-06
"in0" 0.000000000000000e+00
"in1" 1.200000000000000e+00
"net13" -7.604250711797207e-03
"out" 1.322016299505948e-01
"V0:p" 4.345228903897706e-05
"V1:p" 7.301922835890398e-06
"VDD:p" -4.634977278876600e-05
"vdd" 1.200000000000000e+00
"vss" 0.000000000000000e+00
"time" 1.010119456766885e-08
"GND:p" -6.360217876797345e-07
"in0" 0.000000000000000e+00
"in1" 1.200000000000000e+00
"net13" -3.592262968994996e-04
"out" 1.806887199209518e-01
"V0:p" 1.957718897711738e-05
"V1:p" 1.156539391633035e-05
"VDD:p" -3.050656110576767e-05
"vdd" 1.200000000000000e+00
"vss" 0.000000000000000e+00
"time" 1.010270842355079e-08
"GND:p" 5.089112833899794e-06
"in0" 0.000000000000000e+00
"in1" 1.200000000000000e+00
"net13" 4.756511711981262e-03
"out" 2.411739364219250e-01
"V0:p" 1.721415283346824e-05
"V1:p" 7.831343388315561e-06
"VDD:p" -3.013460905568462e-05
"vdd" 1.200000000000000e+00
"vss" 0.000000000000000e+00
"time" 1.010412456949306e-08
"GND:p" 2.604317966325506e-06
"in0" 0.000000000000000e+00
"in1" 1.200000000000000e+00
"net13" 7.202470747891526e-03
"out" 2.967902161747348e-01
"V0:p" 1.787691508315501e-05
"V1:p" 9.257675319886786e-06
"VDD:p" -2.973890836936644e-05
"vdd" 1.200000000000000e+00
"vss" 0.000000000000000e+00
"time" 1.010695686137761e-08
"GND:p" 6.821899232474020e-06
"in0" 0.000000000000000e+00
"in1" 1.200000000000000e+00
"net13" 9.125133319161207e-03
"out" 4.055501668284858e-01
"V0:p" 1.576441684794314e-05
"V1:p" 6.255875034040344e-06
"VDD:p" -2.884219111445820e-05
"vdd" 1.200000000000000e+00
"vss" 0.000000000000000e+00
"time" 1.011083651566214e-08
"GND:p" 3.199814626036076e-06
"in0" 0.000000000000000e+00
"in1" 1.200000000000000e+00
"net13" 9.090940164216981e-03
"out" 5.478490245165438e-01
"V0:p" 1.602106996098569e-05
"V1:p" 7.829949992568293e-06
"VDD:p" -2.705083457958931e-05
"vdd" 1.200000000000000e+00
"vss" 0.000000000000000e+00
"time" 1.011649304455757e-08
"GND:p" 5.795279735139571e-06
"in0" 0.000000000000000e+00
"in1" 1.200000000000000e+00
"net13" 7.549883574295039e-03
"out" 7.307810392190515e-01
"V0:p" 1.246923039496241e-05
"V1:p" 4.374022008643916e-06
"VDD:p" -2.263853213874673e-05
"vdd" 1.200000000000000e+00
"vss" 0.000000000000000e+00
"time" 1.012234419800479e-08
"GND:p" 1.084611646291976e-06
"in0" 0.000000000000000e+00
"in1" 1.200000000000000e+00
"net13" 5.359244103454656e-03
"out" 8.736123044674626e-01
"V0:p" 1.152843873715150e-05
"V1:p" 4.743865556227393e-06
"VDD:p" -1.735691593967014e-05
"vdd" 1.200000000000000e+00
"vss" 0.000000000000000e+00
"time" 1.012829948551091e-08
"GND:p" 3.617737256286088e-06
"in0" 0.000000000000000e+00
"in1" 1.200000000000000e+00
"net13" 3.510866148629610e-03
"out" 9.731835376613797e-01
"V0:p" 7.846045442775061e-06
"V1:p" 1.517384713016392e-06
"VDD:p" -1.298116741207827e-05
"vdd" 1.200000000000000e+00
"vss" 0.000000000000000e+00
"time" 1.013416736750222e-08
"GND:p" -4.612602609599996e-07
"in0" 0.000000000000000e+00
"in1" 1.200000000000000e+00
"net13" 2.411356836165011e-03
"out" 1.041447347888364e+00
"V0:p" 6.998601208319212e-06
"V1:p" 2.923996396475536e-06
"VDD:p" -9.461337343834070e-06
"vdd" 1.200000000000000e+00
"vss" 0.000000000000000e+00
"time" 1.014052300195402e-08
"GND:p" 2.613336848181789e-06
"in0" 0.000000000000000e+00
"in1" 1.200000000000000e+00
"net13" 1.619219857754996e-03
"out" 1.092732387390688e+00
"V0:p" 3.842617169310987e-06
"V1:p" 1.945785859063586e-07
"VDD:p" -6.650532603399813e-06
"vdd" 1.200000000000000e+00
"vss" 0.000000000000000e+00
"time" 1.014802037672428e-08
"GND:p" -1.205824520047544e-06
"in0" 0.000000000000000e+00
"in1" 1.200000000000000e+00
"net13" 1.014309250114145e-03
"out" 1.132755355773001e+00
"V0:p" 3.552110401843455e-06
"V1:p" 1.892201115263354e-06
"VDD:p" -4.238486997058618e-06
"vdd" 1.200000000000000e+00
"vss" 0.000000000000000e+00
"time" 1.015677481141755e-08
"GND:p" 2.060195808811440e-06
"in0" 0.000000000000000e+00
"in1" 1.200000000000000e+00
"net13" 5.837265553870305e-04
"out" 1.161310293351668e+00
"V0:p" 1.052611515859491e-06
"V1:p" -5.980615243952535e-07
"VDD:p" -2.514745800276462e-06
"vdd" 1.200000000000000e+00
"vss" 0.000000000000000e+00
"time" 1.016692991595278e-08
"GND:p" -1.585442406663745e-06
"in0" 0.000000000000000e+00
"in1" 1.200000000000000e+00
"net13" 3.041731320538680e-04
"out" 1.179780801276617e+00
"V0:p" 1.543979927795470e-06
"V1:p" 1.338778065594512e-06
"VDD:p" -1.297315586725451e-06
"vdd" 1.200000000000000e+00
"vss" 0.000000000000000e+00
"time" 1.017874384443265e-08
"GND:p" 1.823451866474840e-06
"in0" 0.000000000000000e+00
"in1" 1.200000000000000e+00
"net13" 1.408653209102831e-04
"out" 1.190573722906153e+00
"V0:p" -2.316379529412273e-07
"V1:p" -9.511869954083832e-07
"VDD:p" -6.406269181260579e-07
"vdd" 1.200000000000000e+00
"vss" 0.000000000000000e+00
"time" 1.019285966775084e-08
"GND:p" -1.718310423221426e-06
"in0" 0.000000000000000e+00
"in1" 1.200000000000000e+00
"net13" 5.560326993324892e-05
"out" 1.196276791015600e+00
"V0:p" 8.137915870058748e-07
"V1:p" 1.129544969435609e-06
"VDD:p" -2.250261332192030e-07
"vdd" 1.200000000000000e+00
"vss" 0.000000000000000e+00
"time" 1.021038152942923e-08
"GND:p" 1.757213065781124e-06
"in0" 0.000000000000000e+00
"in1" 1.200000000000000e+00
"net13" 1.701818787009474e-05
"out" 1.198887739786868e+00
"V0:p" -5.988644173831777e-07
"V1:p" -1.063297582591938e-06
"VDD:p" -9.505106580683360e-08
"vdd" 1.200000000000000e+00
"vss" 0.000000000000000e+00
"time" 1.023330501746464e-08
"GND:p" -1.746364293856247e-06
"in0" 0.000000000000000e+00
"in1" 1.200000000000000e+00
"net13" 3.188205606212310e-06
"out" 1.199819926091693e+00
"V0:p" 6.574705552786773e-07
"V1:p" 1.080050070988808e-06
"VDD:p" 8.843667589601562e-09
"vdd" 1.200000000000000e+00
"vss" 0.000000000000000e+00
"time" 1.026524357783890e-08
"GND:p" 1.748220994569718e-06
"in0" 0.000000000000000e+00
"in1" 1.200000000000000e+00
"net13" 2.221050246722803e-07
"out" 1.200009326972405e+00
"V0:p" -6.489474916479500e-07
"V1:p" -1.078613099960315e-06
"VDD:p" -2.066040296230297e-08
"vdd" 1.200000000000000e+00
"vss" 0.000000000000000e+00
"time" 1.031368926002775e-08
"GND:p" -1.747954437948006e-06
"in0" 0.000000000000000e+00
"in1" 1.200000000000000e+00
"net13" 2.163698552524283e-07
"out" 1.200001065292285e+00
"V0:p" 6.487369869378463e-07
"V1:p" 1.078099929149291e-06
"VDD:p" 2.111752186170904e-08
"vdd" 1.200000000000000e+00
"vss" 0.000000000000000e+00
"time" 1.039783227395385e-08
"GND:p" 1.748248300955281e-06
"in0" 0.000000000000000e+00
"in1" 1.200000000000000e+00
"net13" 2.712272530895167e-07
"out" 1.199998223370883e+00
"V0:p" -6.487276241719550e-07
"V1:p" -1.078200289661821e-06
"VDD:p" -2.132038712235323e-08
"vdd" 1.200000000000000e+00
"vss" 0.000000000000000e+00
"time" 1.056611830180605e-08
"GND:p" -1.747944331273906e-06
"in0" 0.000000000000000e+00
"in1" 1.200000000000000e+00
"net13" 2.357321983217431e-07
"out" 1.199998821987289e+00
"V0:p" 6.487932589510066e-07
"V1:p" 1.078156995222634e-06
"VDD:p" 2.099407710111699e-08
"vdd" 1.200000000000000e+00
"vss" 0.000000000000000e+00
"time" 1.090269035751045e-08
"GND:p" 1.748246524577855e-06
"in0" 0.000000000000000e+00
"in1" 1.200000000000000e+00
"net13" 2.687921746098132e-07
"out" 1.199998401730846e+00
"V0:p" -6.487345050577324e-07
"V1:p" -1.078202714487393e-06
"VDD:p" -2.130930503357818e-08
"vdd" 1.200000000000000e+00
"vss" 0.000000000000000e+00
"time" 1.157583446891926e-08
"GND:p" -1.747943575869486e-06
"in0" 0.000000000000000e+00
"in1" 1.200000000000000e+00
"net13" 2.361399656937867e-07
"out" 1.199998795655024e+00
"V0:p" 6.487956571545601e-07
"V1:p" 1.078157106309792e-06
"VDD:p" 2.099081240598195e-08
"vdd" 1.200000000000000e+00
"vss" 0.000000000000000e+00
"time" 1.257583446891926e-08
"GND:p" 1.748246126011096e-06
"in0" 0.000000000000000e+00
"in1" 1.200000000000000e+00
"net13" 2.683582777271563e-07
"out" 1.199998422144470e+00
"V0:p" -6.487357893984591e-07
"V1:p" -1.078202893175844e-06
"VDD:p" -2.130744343764537e-08
"vdd" 1.200000000000000e+00
"vss" 0.000000000000000e+00
"time" 1.357583446891926e-08
"GND:p" -1.747943263548211e-06
"in0" 0.000000000000000e+00
"in1" 1.200000000000000e+00
"net13" 2.363995884449165e-07
"out" 1.199998782768531e+00
"V0:p" 6.487966251700143e-07
"V1:p" 1.078157186675853e-06
"VDD:p" 2.098945170319839e-08
"vdd" 1.200000000000000e+00
"vss" 0.000000000000000e+00
"time" 1.457583446891926e-08
"GND:p" 1.748245832714944e-06
"in0" 0.000000000000000e+00
"in1" 1.200000000000000e+00
"net13" 2.677568091127428e-07
"out" 1.199998445680694e+00
"V0:p" -6.487367642327233e-07
"V1:p" -1.078203185216357e-06
"VDD:p" -2.130588326671854e-08
"vdd" 1.200000000000000e+00
"vss" 0.000000000000000e+00
"time" 1.557583446891926e-08
"GND:p" -1.747942983103787e-06
"in0" 0.000000000000000e+00
"in1" 1.200000000000000e+00
"net13" 2.369765419934636e-07
"out" 1.199998760761082e+00
"V0:p" 6.487975343857644e-07
"V1:p" 1.078157456023447e-06
"VDD:p" 2.098799269543247e-08
"vdd" 1.200000000000000e+00
"vss" 0.000000000000000e+00
"time" 1.657583446891926e-08
"GND:p" 1.748245564348767e-06
"in0" 0.000000000000000e+00
"in1" 1.200000000000000e+00
"net13" 2.672029315090036e-07
"out" 1.199998466257246e+00
"V0:p" -6.487376121130661e-07
"V1:p" -1.078203433371743e-06
"VDD:p" -2.130451886481454e-08
"vdd" 1.200000000000000e+00
"vss" 0.000000000000000e+00
"time" 1.757583446891926e-08
"GND:p" -1.747942726091883e-06
"in0" 0.000000000000000e+00
"in1" 1.200000000000000e+00
"net13" 2.375087021568017e-07
"out" 1.199998741521891e+00
"V0:p" 6.487983249374968e-07
"V1:p" 1.078157684403668e-06
"VDD:p" 2.098671675157438e-08
"vdd" 1.200000000000000e+00
"vss" 0.000000000000000e+00
"time" 1.857583446891926e-08
"GND:p" 1.748245318013561e-06
"in0" 0.000000000000000e+00
"in1" 1.200000000000000e+00
"net13" 2.666912203215638e-07
"out" 1.199998484245426e+00
"V0:p" -6.487383490819279e-07
"V1:p" -1.078203643293698e-06
"VDD:p" -2.130332563879130e-08
"vdd" 1.200000000000000e+00
"vss" 0.000000000000000e+00
"time" 1.928791723445963e-08
"GND:p" -1.747942444298636e-06
"in0" 0.000000000000000e+00
"in1" 1.200000000000000e+00
"net13" 2.380963579386426e-07
"out" 1.199998721564812e+00
"V0:p" 6.487991394639445e-07
"V1:p" 1.078157912211055e-06
"VDD:p" 2.098539262449020e-08
"vdd" 1.200000000000000e+00
"vss" 0.000000000000000e+00
"time" 2.000000000000000e-08
"GND:p" 1.748245004412074e-06
"in0" 0.000000000000000e+00
"in1" 1.200000000000000e+00
"net13" 2.660346822219911e-07
"out" 1.199998505759603e+00
"V0:p" -6.487392236153693e-07
"V1:p" -1.078203883004488e-06
"VDD:p" -2.130189779306984e-08
"vdd" 1.200000000000000e+00
"vss" 0.000000000000000e+00
"time" 2.001250000000000e-08
"GND:p" 7.938704772212023e-06
"in0" 3.000000000000225e-01
"in1" 1.200000000000000e+00
"net13" 1.385342345045022e-02
"out" 1.290841013092167e+00
"V0:p" -3.294897545647061e-05
"V1:p" 2.636573851228983e-06
"VDD:p" 2.237369683302958e-05
"vdd" 1.200000000000000e+00
"vss" 0.000000000000000e+00
"time" 2.002528960316090e-08
"GND:p" 2.835802928773709e-05
"in0" 6.069504758615255e-01
"in1" 1.200000000000000e+00
"net13" 5.080080405413053e-02
"out" 1.320738313362283e+00
"V0:p" -4.798139085784595e-05
"V1:p" 2.341907141846900e-06
"VDD:p" 1.728145442826203e-05
"vdd" 1.200000000000000e+00
"vss" 0.000000000000000e+00
"time" 2.003020248948157e-08
"GND:p" 4.165856548980713e-05
"in0" 7.248597475575761e-01
"in1" 1.200000000000000e+00
"net13" 7.712179326559657e-02
"out" 1.284963118802326e+00
"V0:p" -5.220673889455820e-05
"V1:p" -8.838025237816039e-07
"VDD:p" 1.143197592853249e-05
"vdd" 1.200000000000000e+00
"vss" 0.000000000000000e+00
"time" 2.003673300904947e-08
"GND:p" 6.304305477542097e-05
"in0" 8.815922171872381e-01
"in1" 1.200000000000000e+00
"net13" 1.226813806828167e-01
"out" 1.150669635251774e+00
"V0:p" -5.864490132153656e-05
"V1:p" -1.659859967664335e-06
"VDD:p" -2.738293486219877e-06
"vdd" 1.200000000000000e+00
"vss" 0.000000000000000e+00
"time" 2.004174831145624e-08
"GND:p" 7.780752087692480e-05
"in0" 1.001959474949725e+00
"in1" 1.200000000000000e+00
"net13" 1.590083828288491e-01
"out" 9.334759825826564e-01
"V0:p" -5.592226158783756e-05
"V1:p" -8.273824848319405e-06
"VDD:p" -1.361143444076806e-05
"vdd" 1.200000000000000e+00
"vss" 0.000000000000000e+00
"time" 2.004577664791486e-08
"GND:p" 8.954799006885425e-05
"in0" 1.098639549956512e+00
"in1" 1.200000000000000e+00
"net13" 1.882025876223382e-01
"out" 6.930536432912677e-01
"V0:p" -6.816904958150286e-05
"V1:p" -8.021815663802690e-06
"VDD:p" -1.335712482354862e-05
"vdd" 1.200000000000000e+00
"vss" 0.000000000000000e+00
"time" 2.004788832395743e-08
"GND:p" 9.271395921338804e-05
"in0" 1.149319774978262e+00
"in1" 1.200000000000000e+00
"net13" 2.001283619501808e-01
"out" 5.518808338903491e-01
"V0:p" -6.352395510422170e-05
"V1:p" -1.252325652042818e-05
"VDD:p" -1.666674758873848e-05
"vdd" 1.200000000000000e+00
"vss" 0.000000000000000e+00
"time" 2.005000000000000e-08
"GND:p" 9.077404110965890e-05
"in0" 1.200000000000000e+00
"in1" 1.200000000000000e+00