HEADER
"PSFversion" "1.00"
"simulator" "spectre"
"version" "19.1.0.237.isr3"
"date" "4:07:41 PM, Tue Aug 30, 2022"
"design" "// Generated for: spectre"
"analysis type" "info"
"analysis name" "outputParameter"
"analysis description" "Circuit Information"
"xVecSorted" "unknown"
"tolerance.relative" 0.00100000
"ReferenceTemperature.Value" 27.0000
"ReferenceTemperature.Units" "C"
TYPE
"bsim3v3~instparams" STRUCT(
"tempeff" FLOAT DOUBLE PROP(
"units" "C"
"description" "Effective temperature for a single device"
)
"meff" FLOAT DOUBLE PROP(
"description" "Effective multiplicity factor (m-factor)"
)
"weff" FLOAT DOUBLE PROP(
"units" "m"
"description" "Effective channel width (alias=lv2)"
)
"leff" FLOAT DOUBLE PROP(
"units" "m"
"description" "Effective channel length (alias=lv1)"
)
"rseff" FLOAT DOUBLE PROP(
"units" "Ohm"
"description" "Effective source resistance (alias=lv17)"
)
"rdeff" FLOAT DOUBLE PROP(
"units" "Ohm"
"description" "Effective drain resistance (alias=lv16)"
)
"aseff" FLOAT DOUBLE PROP(
"units" "m^2"
"description" "Effective source area (alias=lv4)"
)
"adeff" FLOAT DOUBLE PROP(
"units" "m^2"
"description" "Effective drain area (alias=lv3)"
)
"pseff" FLOAT DOUBLE PROP(
"units" "m"
"description" "Effective source perimeter (alias=lv12)"
)
"pdeff" FLOAT DOUBLE PROP(
"units" "m"
"description" "Effective drain perimeter (alias=lv11)"
)
) PROP(
"key" "inst"
)
"isource~instparams" STRUCT(
"tempeff" FLOAT DOUBLE PROP(
"units" "C"
"description" "Effective temperature for a single device"
)
) PROP(
"key" "inst"
)
"vsource~instparams" STRUCT(
"tempeff" FLOAT DOUBLE PROP(
"units" "C"
"description" "Effective temperature for a single device"
)
) PROP(
"key" "inst"
)
VALUE
"MP0" "bsim3v3~instparams" (
2.700000000000000e+01
1.000000000000000e+00
4.290600000000000e-07
1.873720000000000e-07
0.000000000000000e+00
0.000000000000000e+00
7.800000000000000e-14
7.800000000000000e-14
1.190000000000000e-06
1.190000000000000e-06
) PROP(
"model" "MP1.pshort.7"
)
"MP1" "bsim3v3~instparams" (
2.700000000000000e+01
1.000000000000000e+00
4.290600000000000e-07
1.873720000000000e-07
0.000000000000000e+00
0.000000000000000e+00
7.800000000000000e-14
7.800000000000000e-14
1.190000000000000e-06
1.190000000000000e-06
) PROP(
"model" "MP1.pshort.7"
)
"MN0" "bsim3v3~instparams" (
2.700000000000000e+01
1.000000000000000e+00
4.794000000000000e-07
1.961260000000000e-07
0.000000000000000e+00
0.000000000000000e+00
9.750000000000000e-14
9.750000000000000e-14
1.390000000000000e-06
1.390000000000000e-06
) PROP(
"model" "MN1.nshort.7"
)
"MN1" "bsim3v3~instparams" (
2.700000000000000e+01
1.000000000000000e+00
4.794000000000000e-07
1.961260000000000e-07
0.000000000000000e+00
0.000000000000000e+00
9.750000000000000e-14
9.750000000000000e-14
1.390000000000000e-06
1.390000000000000e-06
) PROP(
"model" "MN1.nshort.7"
)
"STRIKE" "isource~instparams" (
2.700000000000000e+01
) PROP(
"model" "isource"
)
"V1" "vsource~instparams" (
2.700000000000000e+01
) PROP(
"model" "vsource"
)
"V0" "vsource~instparams" (
2.700000000000000e+01
) PROP(
"model" "vsource"
)
"GND" "vsource~instparams" (
2.700000000000000e+01
) PROP(
"model" "vsource"
)
"VDD" "vsource~instparams" (
2.700000000000000e+01
) PROP(
"model" "vsource"
)
END
