HEADER
"PSFversion" "1.00"
"dv" ":dv"
"gv" ":gv"
"sv" ":sv"
"bv" ":bv"
