HEADER
"PSFversion" "1.00"
"MN1n MN0n" "c9fh_3r_nfet_spectre"
"MP1n MP0n" "c9fh_3r_pfet_spectre"
