HEADER
"PSFversion" "1.00"
"simulator" "spectre"
"version" "19.1.0.237.isr3"
"date" "10:44:24 PM, Thur Aug 25, 2022"
"design" "// Generated for: spectre"
"analysis type" "info"
"analysis name" "element"
"analysis description" "Circuit Information"
"xVecSorted" "unknown"
"tolerance.relative" 0.00100000
TYPE
"bsim3v3~instparams" STRUCT(
"w" FLOAT DOUBLE PROP(
"units" "m"
"description" "Channel width"
)
"l" FLOAT DOUBLE PROP(
"units" "m"
"description" "Channel length"
)
"as" FLOAT DOUBLE PROP(
"units" "m^2"
"description" "Area of source diffusion"
)
"ad" FLOAT DOUBLE PROP(
"units" "m^2"
"description" "Area of drain diffusion"
)
"ps" FLOAT DOUBLE PROP(
"units" "m"
"description" "Perimeter of source diffusion"
)
"pd" FLOAT DOUBLE PROP(
"units" "m"
"description" "Perimeter of drain diffusion"
)
"nrd" FLOAT DOUBLE PROP(
"units" "m/m"
"description" "Number of squares of drain diffusion"
)
"nrs" FLOAT DOUBLE PROP(
"units" "m/m"
"description" "Number of squares of source diffusion"
)
"m" FLOAT DOUBLE PROP(
"description" "Multiplicity factor (number of MOSFETs in parallel)"
)
"trise" FLOAT DOUBLE PROP(
"units" "C"
"description" "Temperature rise from ambient"
)
"aforward" FLOAT DOUBLE PROP(
"description" "Forward gate leakage current coefficient"
)
"areverse" FLOAT DOUBLE PROP(
"description" "Reverse gate leakage current coefficient"
)
"delvto" FLOAT DOUBLE PROP(
"units" "V"
"description" "shift in zero-bias threshold voltage vth0"
)
"mulmu0" FLOAT DOUBLE PROP(
"description" "mobility multiplier"
)
"mulu0" FLOAT DOUBLE PROP(
"description" "mobility multiplier"
)
"delk1" FLOAT DOUBLE PROP(
"units" "sqrt(V)"
"description" "shift in body bias coefficient k1"
)
"delnfct" FLOAT DOUBLE PROP(
"description" "shift in subthreshold swing factor nfactor"
)
"rdc" FLOAT DOUBLE PROP(
"description" "Drain contact resistance"
)
"rsc" FLOAT DOUBLE PROP(
"description" "Source contact resistance"
)
"sa" FLOAT DOUBLE PROP(
"units" "m"
"description" "Distance between OD edge to poly of one side"
)
"sb" FLOAT DOUBLE PROP(
"units" "m"
"description" "Distance between OD edge to poly of the other side"
)
"sa1" FLOAT DOUBLE PROP(
"units" "m"
"description" "Distance between OD edge to poly of one side 1"
)
"sa2" FLOAT DOUBLE PROP(
"units" "m"
"description" "Distance between OD edge to poly of one side 2"
)
"sa3" FLOAT DOUBLE PROP(
"units" "m"
"description" "Distance between OD edge to poly of one side 3"
)
"sa4" FLOAT DOUBLE PROP(
"units" "m"
"description" "Distance between OD edge to poly of one side 4"
)
"sa5" FLOAT DOUBLE PROP(
"units" "m"
"description" "Distance between OD edge to poly of one side 5"
)
"sa6" FLOAT DOUBLE PROP(
"units" "m"
"description" "Distance between OD edge to poly of one side 6"
)
"sa7" FLOAT DOUBLE PROP(
"units" "m"
"description" "Distance between OD edge to poly of one side 7"
)
"sa8" FLOAT DOUBLE PROP(
"units" "m"
"description" "Distance between OD edge to poly of one side 8"
)
"sa9" FLOAT DOUBLE PROP(
"units" "m"
"description" "Distance between OD edge to poly of one side 9"
)
"sa10" FLOAT DOUBLE PROP(
"units" "m"
"description" "Distance between OD edge to poly of one side 10"
)
"sb1" FLOAT DOUBLE PROP(
"units" "m"
"description" "Distance between OD edge to poly of the other side 1"
)
"sb2" FLOAT DOUBLE PROP(
"units" "m"
"description" "Distance between OD edge to poly of the other side 2"
)
"sb3" FLOAT DOUBLE PROP(
"units" "m"
"description" "Distance between OD edge to poly of the other side 3"
)
"sb4" FLOAT DOUBLE PROP(
"units" "m"
"description" "Distance between OD edge to poly of the other side 4"
)
"sb5" FLOAT DOUBLE PROP(
"units" "m"
"description" "Distance between OD edge to poly of the other side 5"
)
"sb6" FLOAT DOUBLE PROP(
"units" "m"
"description" "Distance between OD edge to poly of the other side 6"
)
"sb7" FLOAT DOUBLE PROP(
"units" "m"
"description" "Distance between OD edge to poly of the other side 7"
)
"sb8" FLOAT DOUBLE PROP(
"units" "m"
"description" "Distance between OD edge to poly of the other side 8"
)
"sb9" FLOAT DOUBLE PROP(
"units" "m"
"description" "Distance between OD edge to poly of the other side 9"
)
"sb10" FLOAT DOUBLE PROP(
"units" "m"
"description" "Distance between OD edge to poly of the other side 10"
)
"sw1" FLOAT DOUBLE PROP(
"units" "m"
"description" "Width of SA1/SB1"
)
"sw2" FLOAT DOUBLE PROP(
"units" "m"
"description" "Width of SA2/SB2"
)
"sw3" FLOAT DOUBLE PROP(
"units" "m"
"description" "Width of SA3/SB3"
)
"sw4" FLOAT DOUBLE PROP(
"units" "m"
"description" "Width of SA4/SB4"
)
"sw5" FLOAT DOUBLE PROP(
"units" "m"
"description" "Width of SA5/SB5"
)
"sw6" FLOAT DOUBLE PROP(
"units" "m"
"description" "Width of SA6/SB6"
)
"sw7" FLOAT DOUBLE PROP(
"units" "m"
"description" "Width of SA7/SB7"
)
"sw8" FLOAT DOUBLE PROP(
"units" "m"
"description" "Width of SA8/SB8"
)
"sw9" FLOAT DOUBLE PROP(
"units" "m"
"description" "Width of SA9/SB9"
)
"sw10" FLOAT DOUBLE PROP(
"units" "m"
"description" "Width of SA10/SB10"
)
"sca" FLOAT DOUBLE PROP(
"description" " Integral of the first distribution function for scattered well dopant"
)
"scb" FLOAT DOUBLE PROP(
"description" "Integral of the second distribution function for scattered well dopant"
)
"scc" FLOAT DOUBLE PROP(
"units" "V"
"description" "Integral of the third distribution function for scattered well dopant"
)
"sc" FLOAT DOUBLE PROP(
"units" "m"
"description" " Distance to a single well edge "
)
"mulid0" FLOAT DOUBLE PROP(
"description" "Ids multiplier"
)
"mulbeta" FLOAT DOUBLE PROP(
"description" "Beta multiplier"
)
"nqsmod" INT LONG PROP(
"description" "NQS flag"
)
"acnqsmod" INT LONG PROP(
"description" "AC NQS flag"
)
"geo" INT LONG PROP(
"description" "Geometry selector"
)
"stimod" INT LONG PROP(
"description" "LOD stress effect model selector"
)
"region" INT BYTE PROP(
"description" "Estimated operating region. Spectre outputs number (0-4) in a rawfile"
)
"isnoisy" INT BYTE PROP(
"description" "Should device generate noise"
)
) PROP(
"key" "inst"
)
VALUE
"MP0" "bsim3v3~instparams" (
4.000000000000000e-01
2.000000000000000e-01
7.800000000000000e-02
7.800000000000000e-02
1.190000000000000e+00
1.190000000000000e+00
0.000000000000000e+00
0.000000000000000e+00
1.000000000000000e+00
nan
nan
nan
nan
nan
nan
nan
nan
nan
nan
nan
nan
nan
nan
nan
nan
nan
nan
nan
nan
nan
nan
nan
nan
nan
nan
nan
nan
nan
nan
nan
nan
nan
nan
nan
nan
nan
nan
nan
nan
nan
nan
nan
nan
nan
nan
1.000000000000000e+00
1.000000000000000e+00
2147483647
2147483647
0
2147483647
2
1
) PROP(
"model" "MP1.pshort.7"
)
"MP1" "bsim3v3~instparams" (
4.000000000000000e-01
2.000000000000000e-01
7.800000000000000e-02
7.800000000000000e-02
1.190000000000000e+00
1.190000000000000e+00
0.000000000000000e+00
0.000000000000000e+00
1.000000000000000e+00
nan
nan
nan
nan
nan
nan
nan
nan
nan
nan
nan
nan
nan
nan
nan
nan
nan
nan
nan
nan
nan
nan
nan
nan
nan
nan
nan
nan
nan
nan
nan
nan
nan
nan
nan
nan
nan
nan
nan
nan
nan
nan
nan
nan
nan
nan
1.000000000000000e+00
1.000000000000000e+00
2147483647
2147483647
0
2147483647
2
1
) PROP(
"model" "MP1.pshort.7"
)
"MN0" "bsim3v3~instparams" (
5.000000000000000e-01
2.000000000000000e-01
9.750000000000000e-02
9.750000000000000e-02
1.390000000000000e+00
1.390000000000000e+00
0.000000000000000e+00
0.000000000000000e+00
1.000000000000000e+00
nan
nan
nan
nan
nan
nan
nan
nan
nan
nan
nan
nan
nan
nan
nan
nan
nan
nan
nan
nan
nan
nan
nan
nan
nan
nan
nan
nan
nan
nan
nan
nan
nan
nan
nan
nan
nan
nan
nan
nan
nan
nan
nan
nan
nan
nan
1.000000000000000e+00
1.000000000000000e+00
2147483647
2147483647
0
2147483647
2
1
) PROP(
"model" "MN1.nshort.7"
)
"MN1" "bsim3v3~instparams" (
5.000000000000000e-01
2.000000000000000e-01
9.750000000000000e-02
9.750000000000000e-02
1.390000000000000e+00
1.390000000000000e+00
0.000000000000000e+00
0.000000000000000e+00
1.000000000000000e+00
nan
nan
nan
nan
nan
nan
nan
nan
nan
nan
nan
nan
nan
nan
nan
nan
nan
nan
nan
nan
nan
nan
nan
nan
nan
nan
nan
nan
nan
nan
nan
nan
nan
nan
nan
nan
nan
nan
nan
nan
nan
nan
nan
nan
nan
nan
1.000000000000000e+00
1.000000000000000e+00
2147483647
2147483647
0
2147483647
2
1
) PROP(
"model" "MN1.nshort.7"
)
END
