HEADER
"PSFversion" "1.00"
"simulator" "spectre"
"version" "19.1.0.237.isr3"
"date" "1:46:45 AM, Sat Sep 10, 2022"
"design" "// Generated for: spectre"
"analysis type" "info.subckts"
"analysis name" "subckts"
"analysis description" "Circuit Information"
"xVecSorted" "unknown"
"tolerance.relative" 0.00100000
TYPE
"subckt" STRUCT(
"subckt_params" STRING *
"subckt_terminals" STRING *
"subckt_instances" STRING *
) PROP(
"key" "sub"
)
VALUE
"xcmimc2_hd" "subckt" (
""
""
""
)
"xpnppar" "subckt" (
""
""
""
)
"xrdn_4_1" "subckt" (
""
""
""
)
"xrdp_8_3" "subckt" (
""
""
""
)
"xpdiode" "subckt" (
""
""
""
)
"xrdp_base" "subckt" (
""
""
""
)
"xrdn_6_2" "subckt" (
""
""
""
)
"nthick" "subckt" (
""
""
""
)
"pshort" "subckt" (
"cgso_pshort0_param lint_pshort6_param__nor cjsw_pshort8_param__nor ags_pshort2_param__nor cgsl_pshort7_param cgsl_pshort4_param__nor dvt0w_pshort6_param__nor nlx_pshort4_param__nor ags_pshort4_param__nor tox_pshort8_param__nor ags_pshort8_param__nor vsat_pshort4_param b0_pshort2_param__nor b0_pshort4_param__nor dvt0w_pshort8_param__nor dwg_pshort4_param nlx_pshort3_param__nor ags_pshort3_param cgdl_pshort0_param__nor cgsl_pshort0_param lint_pshort5_param__nor vth0_pshort7_param__nor dsub_pshort6_param rdsw_pshort3_param u0_pshort2_param__nor cj_pshort5_param cgsl_pshort8_param dwg_pshort7_param nlx_pshort5_param cgdl_pshort3_param__nor tox_pshort3_param__nor wint_pshort2_param cjswg_pshort6_param__nor rdsw_pshort0_param__nor cgdl_pshort4_param cgsl_pshort0_param__nor u0_pshort1_param__nor cjswg_pshort5_param u0_pshort0_param__nor cgdl_pshort2_param cjsw_pshort5_param rdsw_pshort4_param__nor b0_pshort_mc_proc cgsl_pshort6_param cgsl_pshort_mc_proc cgdl_pshort6_param cj_pshort8_param dwg_pshort8_param__nor rdsw_pshort5_param u0_pshort4_param cj_pshort3_param cgdl_pshort2_param__nor cgdo_pshort2_param cgsl_pshort2_param cjsw_pshort4_param__nor vth0_pshort8_param wint_pshort3_param b0_pshort6_param__nor cjswg_pshort3_param u0_pshort2_param b0_pshort4_param dvt0w_pshort5_param lint_pshort2_param vsat_pshort_mc_proc dvt0w_pshort5_param__nor dsub_pshort5_param__nor dwg_pshort3_param__nor dsub_pshort2_param cjswg_pshort8_param ags_pshort1_param__nor cgdo_pshort1_param cgdo_pshort3_param dwg_pshort5_param__nor rdsw_pshort8_param__nor wint_pshort5_param__nor dwg_pshort1_param cgso_pshort5_param__nor cj_pshort2_param__nor vsat_pshort5_param b0_pshort6_param ags_pshort3_param__nor tox_pshort6_param cgdo_pshort0_param cgsl_pshort1_param dsub_pshort8_param tox_pshort_mc_mm vth0_pshort3_param vsat_pshort4_param__nor lint_pshort7_param b0_pshort7_param__nor cgdo_pshort8_param__nor dsub_pshort0_param mult cgso_pshort6_param__nor cgdo_pshort4_param cj_pshort7_param cgdo_pshort7_param cj_pshort4_param__nor dsub_pshort4_param__nor rdsw_pshort7_param rdsw_pshort1_param cgso_pshort2_param tox_pshort1_param__nor ags_pshort_mc_proc rdsw_pshort7_param__nor tox_pshort7_param cgdo_pshort7_param__nor cgdl_pshort0_param nlx_pshort0_param nrd wint_pshort7_param rdsw_pshort4_param dwg_pshort3_param tox_pshort4_param cj_pshort0_param__nor cj_pshort7_param__nor vth0_pshort2_param wint_pshort8_param__nor ags_pshort0_param dvt0w_pshort0_param__nor ad lint_pshort5_param nlx_pshort1_param__nor vsat_pshort2_param__nor cgso_pshort1_param__nor cgdl_pshort5_param__nor vsat_pshort3_param__nor cgdl_pshort6_param__nor cjswg_pshort0_param__nor wint_pshort0_param wint_pshort6_param b0_pshort0_param__nor dwg_pshort_mc_proc cgdl_pshort1_param cgdl_pshort7_param u0_pshort8_param wint_pshort6_param__nor cj_pshort4_param dsub_pshort1_param__nor gate_leakage_enable cjsw_pshort7_param dvt0w_pshort1_param nlx_pshort6_param__nor cjsw_pshort8_param cgdo_pshort5_param dvt0w_pshort2_param rdsw_pshort3_param__nor cj_pshort2_param dvt0w_pshort4_param__nor lint_pshort3_param__nor parx_aigsd tox_pshort6_param__nor cjswg_pshort7_param cj_pshort1_param cj_pshort6_param b0_pshort5_param__nor u0_pshort3_param b0_pshort2_param vth0_pshort1_param__nor lint_pshort4_param vth0_pshort6_param__nor dvt0w_pshort0_param u0_pshort3_param__nor vsat_pshort8_param__nor vth0_pshort_mc_mm cgso_pshort3_param wint_pshort3_param__nor b0_pshort1_param__nor u0_pshort5_param b0_pshort3_param__nor cgso_pshort_mc_proc dsub_pshort2_param__nor nrs dvt0w_pshort3_param__nor cgso_pshort4_param vsat_pshort8_param cjsw_pshort0_param dsub_pshort_mc_proc vsat_pshort6_param__nor lint_pshort4_param__nor wint_pshort8_param vsat_pshort7_param__nor cjswg_pshort4_param__nor dvt0w_pshort6_param vth0_pshort2_param__nor wint_pshort_mc_proc cjswg_pshort_mc_proc dwg_pshort0_param__nor rdsw_pshort5_param__nor dwg_pshort1_param__nor cgsl_pshort4_param u0_pshort0_param u0_pshort6_param__nor cgsl_pshort8_param__nor nlx_pshort2_param dvt0w_pshort7_param__nor dwg_pshort8_param cjswg_pshort8_param__nor cgso_pshort7_param ags_pshort5_param ags_pshort5_param__nor wint_pshort2_param__nor cgsl_pshort1_param__nor cjsw_pshort6_param__nor cgdo_pshort0_param__nor tox_pshort4_param__nor vth0_pshort5_param__nor dsub_pshort7_param__nor nlx_pshort2_param__nor ags_pshort2_param cgso_pshort8_param__nor wint_pshort4_param lint_pshort1_param__nor cj_pshort3_param__nor cjswg_pshort2_param cgso_pshort5_param u0_pshort6_param cgdl_pshort5_param cjsw_pshort1_param cgdo_pshort1_param__nor cj_pshort1_param__nor tox_pshort5_param__nor lint_pshort8_param__nor nlx_pshort8_param__nor ags_pshort7_param ags_pshort6_param__nor ags_pshort8_param vth0_pshort8_param__nor lint_pshort2_param__nor dwg_pshort0_param tox_pshort2_param b0_pshort0_param cgso_pshort0_param__nor lint_pshort_mc_mm cgdl_pshort3_param cgsl_pshort7_param__nor cjsw_pshort3_param u0_pshort8_param__nor vsat_pshort1_param cgdo_pshort2_param__nor cgdo_pshort_mc_proc cj_pshort5_param__nor nlx_pshort7_param__nor rdsw_pshort6_param cgsl_pshort6_param__nor lint_pshort0_param__nor cgdl_pshort4_param__nor cjsw_pshort2_param__nor cj_pshort6_param__nor lint_pshort_mc_proc cgsl_pshort2_param__nor cgdo_pshort4_param__nor cjswg_pshort4_param nlx_pshort6_param wint_pshort4_param__nor nlx_pshort3_param wint_pshort1_param__nor cgsl_pshort5_param__nor dsub_pshort3_param dvt0w_pshort4_param tox_pshort5_param cjswg_pshort1_param cjswg_pshort1_param__nor cgso_pshort1_param dwg_pshort2_param__nor vth0_pshort0_param__nor cgdo_pshort6_param__nor cjswg_pshort2_param__nor dvt0w_pshort2_param__nor cjsw_pshort6_param u0_pshort7_param as pd vsat_pshort1_param__nor dsub_pshort4_param tox_pshort7_param__nor cjswg_pshort7_param__nor vth0_pshort_mc_proc nlx_pshort4_param u0_pshort7_param__nor cgdl_pshort7_param__nor cjsw_pshort1_param__nor w lint_pshort3_param lint_pshort7_param__nor b0_pshort5_param b0_pshort1_param cgsl_pshort3_param__nor rdsw_pshort8_param tox_pshort_mc_proc vth0_pshort3_param__nor cjsw_pshort5_param__nor tox_pshort0_param__nor vth0_pshort4_param wint_pshort0_param__nor vsat_pshort6_param vth0_pshort6_param ags_pshort0_param__nor b0_pshort8_param__nor cgdo_pshort5_param__nor u0_pshort4_param__nor cgso_pshort8_param lint_pshort0_param rdsw_pshort1_param__nor l cgsl_pshort3_param tox_pshort3_param wint_pshort1_param dwg_pshort7_param__nor cgdo_pshort3_param__nor dsub_pshort8_param__nor dvt0w_pshort7_param cjsw_pshort7_param__nor rdsw_pshort2_param u0_pshort_mc_proc rdsw_pshort0_param lint_pshort8_param nlx_pshort8_param tox_pshort2_param__nor dsub_pshort3_param__nor wint_pshort5_param lint_pshort6_param cjsw_pshort2_param dwg_pshort2_param cjswg_pshort0_param cgso_pshort2_param__nor dsub_pshort7_param dsub_pshort5_param b0_pshort8_param b0_pshort7_param cgdl_pshort8_param cjsw_pshort0_param__nor dvt0w_pshort1_param__nor tox_pshort8_param cgdl_pshort8_param__nor u0_pshort5_param__nor vsat_pshort7_param dvt0w_pshort3_param nlx_pshort5_param__nor nlx_pshort7_param cgdl_pshort1_param__nor vth0_pshort0_param ags_pshort1_param cj_pshort8_param__nor ags_pshort7_param__nor rdsw_pshort_mc_proc vsat_pshort3_param dwg_pshort6_param nlx_pshort1_param dwg_pshort6_param__nor cj_pshort_mc_proc cj_pshort0_param cgso_pshort3_param__nor cjsw_pshort4_param vsat_pshort2_param b0_pshort3_param tox_pshort0_param rdsw_pshort6_param__nor cjsw_pshort3_param__nor ps rdsw_pshort2_param__nor cjswg_pshort5_param__nor dwg_pshort5_param cgso_pshort7_param__nor vsat_pshort5_param__nor nlx_pshort_mc_proc cgdo_pshort8_param wint_pshort7_param__nor cgdo_pshort6_param cjswg_pshort3_param__nor vth0_pshort5_param cgsl_pshort5_param parx_aigc cjswg_pshort6_param dsub_pshort1_param nlx_pshort0_param__nor dvt0w_pshort_mc_proc u0_pshort1_param ags_pshort6_param lint_pshort1_param ags_pshort4_param cgdl_pshort_mc_proc cjsw_pshort_mc_proc dsub_pshort6_param__nor vth0_pshort1_param vsat_pshort0_param tox_pshort1_param vsat_pshort0_param__nor cgso_pshort4_param__nor vth0_pshort7_param dsub_pshort0_param__nor vth0_pshort4_param__nor cgso_pshort6_param dvt0w_pshort8_param dwg_pshort4_param__nor"
"d g s b"
"MP1 MP0"
)
"xrdp_6_2" "subckt" (
""
""
""
)
"xrdn_base" "subckt" (
""
""
""
)
"pnppar" "subckt" (
""
""
""
)
"cnf_b3t" "subckt" (
""
""
""
)
"cnf_u3t" "subckt" (
""
""
""
)
"pshort_l" "subckt" (
""
""
""
)
"xrdn_6_1" "subckt" (
""
""
""
)
"xrdn_8_2" "subckt" (
""
""
""
)
"xrdp_6_3" "subckt" (
""
""
""
)
"pthickbc" "subckt" (
""
""
""
)
"xpdiode_h" "subckt" (
""
""
""
)
"xrdp_8_2" "subckt" (
""
""
""
)
"xcmimc2" "subckt" (
""
""
""
)
"nshort" "subckt" (
"b0_nshort8_param vsat_nshort5_param__nor cgso_nshort5_param__nor ags_nshort1_param cj_nshort8_param cgdl_nshort2_param cgsl_nshort4_param__nor u0_nshort3_param cgsl_nshort11_param u0_nshort1_param rdsw_nshort14_param__nor vth0_nshort8_param ags_nshort5_param__nor vsat_nshort7_param dvt0w_nshort4_param tox_nshort0_param cj_nshort12_param__nor lint_nshort3_param__nor vth0_nshort_mc_mm cjswg_nshort14_param__nor u0_nshort9_param__nor tox_nshort3_param dwg_nshort5_param cjswg_nshort0_param wint_nshort4_param dwg_nshort1_param rdsw_nshort12_param__nor rdsw_nshort1_param__nor nlx_nshort8_param__nor cgso_nshort14_param vsat_nshort12_param__nor cjsw_nshort11_param__nor cjsw_nshort_mc_proc cj_nshort4_param__nor cj_nshort5_param vth0_nshort10_param vsat_nshort10_param dsub_nshort9_param__nor dwg_nshort2_param__nor vth0_nshort10_param__nor cgso_nshort10_param dsub_nshort5_param__nor cgso_nshort8_param__nor vth0_nshort14_param__nor b0_nshort12_param__nor vsat_nshort8_param dvt0w_nshort5_param tox_nshort4_param cgdl_nshort14_param__nor cjsw_nshort14_param__nor cjsw_nshort10_param__nor u0_nshort12_param cjswg_nshort12_param dwg_nshort4_param__nor ps cj_nshort14_param__nor nlx_nshort11_param nlx_nshort7_param__nor cgdo_nshort0_param ags_nshort4_param dwg_nshort12_param__nor lint_nshort1_param b0_nshort13_param wint_nshort8_param dvt0w_nshort10_param__nor cgdo_nshort4_param__nor cgdo_nshort5_param dvt0w_nshort8_param__nor vth0_nshort9_param__nor cgso_nshort13_param lint_nshort10_param__nor wint_nshort7_param cgsl_nshort2_param nlx_nshort4_param__nor nlx_nshort7_param wint_nshort1_param cj_nshort0_param cgsl_nshort9_param__nor lint_nshort_mc_proc dwg_nshort7_param__nor rdsw_nshort9_param vsat_nshort0_param__nor cgdo_nshort1_param lint_nshort3_param tox_nshort10_param__nor cgso_nshort1_param__nor cgdo_nshort0_param__nor cgsl_nshort13_param cgdl_nshort8_param wint_nshort2_param cjsw_nshort1_param tox_nshort12_param cgsl_nshort11_param__nor cjswg_nshort12_param__nor wint_nshort14_param wint_nshort2_param__nor dwg_nshort_mc_proc ags_nshort10_param l tox_nshort9_param__nor vsat_nshort13_param__nor wint_nshort11_param b0_nshort5_param tox_nshort6_param__nor dvt0w_nshort6_param cjswg_nshort7_param tox_nshort2_param dwg_nshort13_param__nor vth0_nshort5_param__nor dvt0w_nshort14_param__nor rdsw_nshort11_param__nor cgdl_nshort3_param__nor rdsw_nshort2_param__nor dvt0w_nshort2_param ags_nshort11_param cgsl_nshort9_param cgsl_nshort_mc_proc cjsw_nshort9_param lint_nshort9_param vsat_nshort12_param dvt0w_nshort13_param vsat_nshort14_param cj_nshort1_param nlx_nshort14_param__nor cgdo_nshort7_param wint_nshort6_param__nor cgsl_nshort6_param wint_nshort9_param b0_nshort0_param u0_nshort10_param__nor ags_nshort0_param cgdl_nshort7_param__nor cjswg_nshort4_param lint_nshort8_param__nor wint_nshort10_param__nor wint_nshort12_param__nor dsub_nshort7_param cjswg_nshort13_param dvt0w_nshort1_param rdsw_nshort0_param vth0_nshort11_param__nor b0_nshort5_param__nor b0_nshort12_param cgdo_nshort9_param__nor cjsw_nshort4_param__nor tox_nshort7_param b0_nshort6_param__nor dvt0w_nshort4_param__nor dvt0w_nshort7_param wint_nshort3_param cgsl_nshort3_param__nor u0_nshort9_param lint_nshort0_param u0_nshort6_param dsub_nshort6_param__nor vsat_nshort4_param__nor vsat_nshort6_param b0_nshort8_param__nor dsub_nshort5_param rdsw_nshort14_param rdsw_nshort11_param rdsw_nshort4_param__nor vth0_nshort0_param__nor vth0_nshort_mc_proc cgdo_nshort1_param__nor cgdl_nshort4_param__nor cgso_nshort11_param nlx_nshort_mc_proc lint_nshort8_param dwg_nshort7_param u0_nshort2_param cj_nshort11_param__nor dsub_nshort3_param__nor rdsw_nshort8_param vth0_nshort7_param__nor cjsw_nshort13_param dwg_nshort14_param ags_nshort13_param__nor dwg_nshort11_param__nor ags_nshort4_param__nor b0_nshort2_param__nor rdsw_nshort0_param__nor dsub_nshort12_param dwg_nshort14_param__nor u0_nshort14_param__nor cjsw_nshort3_param__nor vsat_nshort1_param wint_nshort10_param lint_nshort7_param__nor cgso_nshort_mc_proc vth0_nshort14_param cgso_nshort7_param cgdo_nshort9_param vth0_nshort6_param lint_nshort2_param__nor b0_nshort14_param__nor wint_nshort11_param__nor cgdo_nshort13_param dsub_nshort0_param__nor dsub_nshort4_param dwg_nshort1_param__nor cjsw_nshort12_param cjswg_nshort10_param wint_nshort8_param__nor cgso_nshort7_param__nor lint_nshort11_param cgso_nshort9_param ags_nshort9_param nlx_nshort10_param cgdo_nshort13_param__nor cjswg_nshort8_param dsub_nshort4_param__nor u0_nshort11_param vth0_nshort5_param cj_nshort7_param dsub_nshort1_param__nor ags_nshort7_param__nor rdsw_nshort3_param__nor cj_nshort6_param__nor cjswg_nshort8_param__nor rdsw_nshort8_param__nor wint_nshort6_param cgsl_nshort1_param__nor dsub_nshort0_param tox_nshort_mc_mm b0_nshort10_param u0_nshort10_param ad cgsl_nshort1_param tox_nshort0_param__nor vth0_nshort11_param cgdo_nshort11_param vth0_nshort9_param ags_nshort12_param__nor cgdl_nshort13_param cjswg_nshort3_param__nor dvt0w_nshort0_param cgsl_nshort3_param dvt0w_nshort12_param u0_nshort13_param dsub_nshort_mc_proc vsat_nshort7_param__nor dsub_nshort14_param__nor cgso_nshort14_param__nor nlx_nshort3_param__nor cj_nshort2_param cgdl_nshort3_param nlx_nshort12_param ags_nshort13_param dvt0w_nshort7_param__nor lint_nshort2_param u0_nshort2_param__nor nlx_nshort6_param cgdo_nshort12_param__nor cgdl_nshort5_param__nor cgdo_nshort8_param__nor cgdl_nshort8_param__nor tox_nshort14_param__nor cjsw_nshort0_param cjswg_nshort7_param__nor rdsw_nshort12_param u0_nshort4_param tox_nshort1_param__nor dvt0w_nshort11_param dvt0w_nshort11_param__nor lint_nshort6_param__nor dwg_nshort5_param__nor vsat_nshort11_param dvt0w_nshort6_param__nor u0_nshort5_param__nor u0_nshort14_param dwg_nshort6_param__nor ags_nshort3_param dwg_nshort6_param ags_nshort6_param cj_nshort13_param__nor dsub_nshort10_param rdsw_nshort3_param w cj_nshort9_param__nor cjsw_nshort0_param__nor vsat_nshort1_param__nor ags_nshort10_param__nor cjswg_nshort1_param cjswg_nshort9_param__nor b0_nshort_mc_proc cgso_nshort12_param__nor cgsl_nshort14_param__nor cjswg_nshort_mc_proc dwg_nshort9_param cjswg_nshort11_param__nor nlx_nshort14_param nlx_nshort4_param tox_nshort9_param u0_nshort7_param__nor wint_nshort12_param cjsw_nshort6_param cjswg_nshort11_param cgdo_nshort14_param__nor tox_nshort8_param vsat_nshort9_param__nor ags_nshort2_param__nor b0_nshort11_param__nor cjswg_nshort2_param b0_nshort0_param__nor dsub_nshort11_param cgdo_nshort7_param__nor nlx_nshort11_param__nor cgdl_nshort7_param cgdl_nshort0_param__nor nlx_nshort9_param__nor cgdl_nshort9_param__nor tox_nshort13_param ags_nshort14_param ags_nshort6_param__nor dvt0w_nshort5_param__nor cgso_nshort1_param parx_aigc cgsl_nshort12_param b0_nshort9_param cj_nshort0_param__nor cgdl_nshort2_param__nor cjsw_nshort13_param__nor u0_nshort7_param cjsw_nshort11_param nlx_nshort5_param tox_nshort12_param__nor dsub_nshort14_param lint_nshort4_param ags_nshort1_param__nor lint_nshort12_param__nor cgsl_nshort2_param__nor cj_nshort10_param dvt0w_nshort14_param vsat_nshort8_param__nor u0_nshort_mc_proc cgsl_nshort5_param dwg_nshort4_param b0_nshort6_param lint_nshort4_param__nor dsub_nshort8_param b0_nshort3_param__nor cgdo_nshort_mc_proc cgdo_nshort6_param cgsl_nshort10_param__nor vth0_nshort7_param cjsw_nshort9_param__nor tox_nshort5_param cgso_nshort12_param lint_nshort13_param__nor cjsw_nshort2_param nlx_nshort0_param wint_nshort3_param__nor cgdl_nshort_mc_proc cgdo_nshort11_param__nor cgso_nshort3_param b0_nshort3_param cgsl_nshort7_param dwg_nshort12_param cgdo_nshort5_param__nor cjswg_nshort5_param rdsw_nshort10_param cjsw_nshort10_param vth0_nshort12_param__nor dsub_nshort2_param__nor dwg_nshort9_param__nor vth0_nshort1_param__nor cgdl_nshort10_param__nor rdsw_nshort6_param tox_nshort13_param__nor cj_nshort11_param cgso_nshort6_param lint_nshort6_param cgso_nshort2_param__nor dwg_nshort8_param__nor vsat_nshort_mc_proc cgdo_nshort6_param__nor u0_nshort3_param__nor lint_nshort14_param__nor vth0_nshort6_param__nor cgdl_nshort9_param dvt0w_nshort2_param__nor dvt0w_nshort_mc_proc wint_nshort0_param rdsw_nshort_mc_proc gate_leakage_enable nlx_nshort13_param__nor dvt0w_nshort1_param__nor b0_nshort1_param__nor cgsl_nshort6_param__nor cgso_nshort0_param__nor cjsw_nshort7_param parx_aigsd as cj_nshort7_param__nor pd rdsw_nshort2_param cgso_nshort11_param__nor dsub_nshort3_param nrd vth0_nshort4_param cj_nshort12_param cj_nshort2_param__nor rdsw_nshort1_param cjswg_nshort3_param dwg_nshort8_param tox_nshort7_param__nor cgdl_nshort0_param cjsw_nshort3_param dsub_nshort13_param ags_nshort0_param__nor lint_nshort0_param__nor nlx_nshort2_param__nor cjsw_nshort1_param__nor nlx_nshort13_param nlx_nshort6_param__nor b0_nshort9_param__nor nrs lint_nshort7_param tox_nshort11_param cj_nshort5_param__nor cgso_nshort4_param__nor cj_nshort3_param__nor wint_nshort5_param__nor lint_nshort11_param__nor u0_nshort4_param__nor rdsw_nshort10_param__nor cjswg_nshort10_param__nor wint_nshort14_param__nor cj_nshort13_param cjswg_nshort5_param__nor u0_nshort11_param__nor lint_nshort5_param vth0_nshort2_param b0_nshort10_param__nor cjswg_nshort9_param cjswg_nshort6_param dwg_nshort2_param lint_nshort_mc_mm nlx_nshort1_param b0_nshort7_param rdsw_nshort5_param cjsw_nshort8_param__nor dsub_nshort8_param__nor tox_nshort10_param vth0_nshort4_param__nor ags_nshort11_param__nor cjswg_nshort1_param__nor dvt0w_nshort8_param vth0_nshort3_param__nor ags_nshort8_param b0_nshort1_param dwg_nshort11_param nlx_nshort8_param u0_nshort12_param__nor ags_nshort_mc_proc cgdl_nshort4_param u0_nshort1_param__nor cjswg_nshort0_param__nor nlx_nshort5_param__nor tox_nshort_mc_proc cj_nshort6_param tox_nshort2_param__nor cgdo_nshort3_param vsat_nshort4_param u0_nshort8_param__nor cgdl_nshort13_param__nor vsat_nshort5_param cj_nshort8_param__nor nlx_nshort10_param__nor cgdo_nshort8_param cjsw_nshort2_param__nor cgdo_nshort14_param lint_nshort14_param wint_nshort5_param vth0_nshort0_param wint_nshort7_param__nor vth0_nshort3_param dwg_nshort13_param vsat_nshort11_param__nor u0_nshort0_param__nor dwg_nshort0_param__nor cgso_nshort6_param__nor vsat_nshort2_param cgdo_nshort3_param__nor cj_nshort1_param__nor cj_nshort3_param cjswg_nshort4_param__nor b0_nshort7_param__nor nlx_nshort0_param__nor cgso_nshort4_param nlx_nshort2_param dvt0w_nshort10_param dvt0w_nshort3_param cgso_nshort13_param__nor cj_nshort_mc_proc wint_nshort4_param__nor vsat_nshort9_param lint_nshort12_param cjswg_nshort14_param dsub_nshort2_param dwg_nshort3_param u0_nshort0_param cgdo_nshort2_param vth0_nshort13_param__nor cgsl_nshort8_param__nor rdsw_nshort7_param__nor ags_nshort7_param dvt0w_nshort13_param__nor vsat_nshort0_param cgsl_nshort7_param__nor cjsw_nshort5_param rdsw_nshort7_param rdsw_nshort9_param__nor tox_nshort4_param__nor vsat_nshort6_param__nor cgdl_nshort12_param__nor b0_nshort4_param cjsw_nshort12_param__nor vsat_nshort2_param__nor cgsl_nshort4_param ags_nshort9_param__nor cgdo_nshort4_param dvt0w_nshort0_param__nor dvt0w_nshort12_param__nor u0_nshort13_param__nor vsat_nshort3_param cjswg_nshort2_param__nor b0_nshort14_param vsat_nshort3_param__nor nlx_nshort12_param__nor cgso_nshort8_param cj_nshort10_param__nor cjsw_nshort5_param__nor cjswg_nshort6_param__nor ags_nshort3_param__nor dsub_nshort13_param__nor mult cgso_nshort2_param wint_nshort9_param__nor ags_nshort12_param dsub_nshort1_param lint_nshort1_param__nor cjswg_nshort13_param__nor tox_nshort6_param vth0_nshort8_param__nor lint_nshort10_param nlx_nshort9_param cgdl_nshort10_param dsub_nshort7_param__nor wint_nshort_mc_proc cgdl_nshort6_param__nor wint_nshort0_param__nor wint_nshort1_param__nor vth0_nshort13_param lint_nshort5_param__nor dwg_nshort0_param cgsl_nshort13_param__nor vsat_nshort10_param__nor cgdl_nshort14_param cgsl_nshort14_param u0_nshort8_param wint_nshort13_param b0_nshort13_param__nor cgdl_nshort1_param cgdl_nshort1_param__nor nlx_nshort1_param__nor lint_nshort9_param__nor cj_nshort9_param cgsl_nshort0_param__nor wint_nshort13_param__nor cgdl_nshort11_param rdsw_nshort13_param dwg_nshort10_param cgsl_nshort10_param dsub_nshort12_param__nor dvt0w_nshort9_param cgsl_nshort5_param__nor b0_nshort4_param__nor cgdl_nshort11_param__nor cgdo_nshort10_param__nor cgdo_nshort12_param rdsw_nshort5_param__nor tox_nshort5_param__nor tox_nshort11_param__nor dsub_nshort10_param__nor b0_nshort2_param dwg_nshort10_param__nor rdsw_nshort4_param cgso_nshort9_param__nor ags_nshort14_param__nor cgdl_nshort12_param dsub_nshort9_param tox_nshort8_param__nor cjsw_nshort7_param__nor ags_nshort8_param__nor cgdo_nshort2_param__nor dvt0w_nshort9_param__nor dsub_nshort11_param__nor vsat_nshort13_param vth0_nshort1_param dsub_nshort6_param cgso_nshort5_param cjsw_nshort14_param u0_nshort5_param ags_nshort2_param u0_nshort6_param__nor cgso_nshort3_param__nor dwg_nshort3_param__nor nlx_nshort3_param lint_nshort13_param rdsw_nshort13_param__nor ags_nshort5_param cgsl_nshort12_param__nor tox_nshort14_param vth0_nshort12_param tox_nshort3_param__nor cjsw_nshort4_param cgdl_nshort6_param cgsl_nshort0_param cj_nshort14_param cj_nshort4_param rdsw_nshort6_param__nor vsat_nshort14_param__nor cgsl_nshort8_param cgso_nshort0_param tox_nshort1_param b0_nshort11_param cgso_nshort10_param__nor cjsw_nshort8_param cjsw_nshort6_param__nor cgdl_nshort5_param cgdo_nshort10_param vth0_nshort2_param__nor dvt0w_nshort3_param__nor"
"d g s b"
"MN1 MN0"
)
"pthick" "subckt" (
""
""
""
)
"xcintdig2" "subckt" (
""
""
""
)
"xndiode" "subckt" (
""
""
""
)
"nshort_l" "subckt" (
""
""
""
)
"xcintdig1" "subckt" (
""
""
""
)
"xndiode_h" "subckt" (
""
""
""
)
"nthickbc" "subckt" (
""
""
""
)
"xcmimc1" "subckt" (
""
""
""
)
END
