HEADER
"PSFversion" "1.00"
"simulator" "spectre"
"version" "19.1.0.237.isr3"
"date" "1:46:55 AM, Sat Sep 10, 2022"
"design" "// Generated for: spectre"
"analysis type" "info"
"analysis name" "modelParameter"
"analysis description" "Circuit Information"
"xVecSorted" "unknown"
"tolerance.relative" 0.00100000
TYPE
"bsim3v3" STRUCT(
"vtho" FLOAT DOUBLE PROP(
"units" "V"
"description" "Threshold voltage at zero body bias for long-channel devices. For enhancement-mode devices, vtho > 0 for n-channel and vth < 0 for p-channel. Default value is calculated from other model parameters"
)
"vfb" FLOAT DOUBLE PROP(
"units" "V"
"description" "Flat-band voltage"
)
"k1" FLOAT DOUBLE PROP(
"units" "sqrt(V)"
"description" "Body-effect coefficient"
)
"k2" FLOAT DOUBLE PROP(
"description" "Charge-sharing parameter"
)
"k3" FLOAT DOUBLE PROP(
"description" "Narrow width coefficient"
)
"k3b" FLOAT DOUBLE PROP(
"units" "1/V"
"description" "Narrow width coefficient"
)
"w0" FLOAT DOUBLE PROP(
"units" "m"
"description" "Narrow width coefficient"
)
"nlx" FLOAT DOUBLE PROP(
"units" "m"
"description" "Lateral nonuniform doping coefficient"
)
"gamma1" FLOAT DOUBLE PROP(
"units" "sqrt(V)"
"description" "Body-effect coefficient near the surface"
)
"gamma2" FLOAT DOUBLE PROP(
"units" "sqrt(V)"
"description" "Body-effect coefficient in the bulk"
)
"vbx" FLOAT DOUBLE PROP(
"units" "V"
"description" "Threshold voltage transition body voltage"
)
"vbm" FLOAT DOUBLE PROP(
"units" "V"
"description" "Maximum applied body voltage"
)
"dvt0" FLOAT DOUBLE PROP(
"description" "First coefficient of short-channel effects"
)
"dvt1" FLOAT DOUBLE PROP(
"description" "Second coefficient of short-channel effects"
)
"dvt2" FLOAT DOUBLE PROP(
"units" "1/V"
"description" "Body-bias coefficient of short-channel effects"
)
"dvt0w" FLOAT DOUBLE PROP(
"units" "1/m"
"description" "First coefficient of narrow-width effects"
)
"dvt1w" FLOAT DOUBLE PROP(
"units" "1/m"
"description" "Second coefficient of narrow-width effects"
)
"dvt2w" FLOAT DOUBLE PROP(
"units" "1/V"
"description" "Body-bias coefficient of narrow-width effects"
)
"a0" FLOAT DOUBLE PROP(
"description" "Nonuniform depletion width effect coefficient"
)
"b0" FLOAT DOUBLE PROP(
"units" "m"
"description" "Bulk charge coefficient due to narrow width effect"
)
"b1" FLOAT DOUBLE PROP(
"units" "m"
"description" "Bulk charge coefficient due to narrow width effect"
)
"a1" FLOAT DOUBLE PROP(
"units" "1/V"
"description" "No-saturation coefficient"
)
"a2" FLOAT DOUBLE PROP(
"description" "No-saturation coefficient"
)
"ags" FLOAT DOUBLE PROP(
"units" "1/v"
"description" "Gate-bias dependence of Abulk"
)
"keta" FLOAT DOUBLE PROP(
"units" "1/V"
"description" "Body-bias coefficient for non-uniform depletion width effect"
)
"ivth" FLOAT DOUBLE PROP(
"units" "A"
"description" "Vth current parameter. The default value is taken from the options parameter 'ivthn' or 'ivthp', depending on the type of the model"
)
"ivthw" FLOAT DOUBLE PROP(
"units" "m"
"description" "Width offset for constant current Vth. The default value is taken from the options parameter 'ivthw'"
)
"ivthl" FLOAT DOUBLE PROP(
"units" "m"
"description" "Length offset for constant current Vth. The default value is taken from the options parameter 'ivthl'"
)
"ivth_vdsmin" FLOAT DOUBLE PROP(
"units" "V"
"description" "Minimum Vds in constant current Vth calculating. The default value is taken from the options parameter 'ivth_vdsmin'"
)
"nsub" FLOAT DOUBLE PROP(
"units" "cm^-3"
"description" "Substrate doping concentration"
)
"nch" FLOAT DOUBLE PROP(
"units" "cm^-3"
"description" "Peak channel doping concentration"
)
"ngate" FLOAT DOUBLE PROP(
"units" "cm^-3"
"description" "Poly-gate doping concentration"
)
"xj" FLOAT DOUBLE PROP(
"units" "m"
"description" "Source/drain junction depth"
)
"lint" FLOAT DOUBLE PROP(
"units" "m"
"description" "Lateral diffusion for one side"
)
"wint" FLOAT DOUBLE PROP(
"units" "m"
"description" "Width reduction for one side"
)
"ll" FLOAT DOUBLE PROP(
"units" "m^lln"
"description" "Length dependence of delta L"
)
"lln" FLOAT DOUBLE PROP(
"description" "Length exponent of delta L"
)
"lw" FLOAT DOUBLE PROP(
"units" "m^lwn"
"description" "Width dependence of delta L"
)
"lwn" FLOAT DOUBLE PROP(
"description" "Width exponent of delta L"
)
"lwl" FLOAT DOUBLE PROP(
"units" "m^lwn+lln"
"description" "Area dependence of delta L"
)
"wl" FLOAT DOUBLE PROP(
"units" "m^wln"
"description" "Length dependence of delta W"
)
"wln" FLOAT DOUBLE PROP(
"description" "Length exponent of delta W"
)
"ww" FLOAT DOUBLE PROP(
"units" "m^wwn"
"description" "Width dependence of delta W"
)
"wwn" FLOAT DOUBLE PROP(
"description" "Width exponent of delta W"
)
"wwl" FLOAT DOUBLE PROP(
"units" "m^wwn+wln"
"description" "Area dependence of delta W"
)
"dwg" FLOAT DOUBLE PROP(
"units" "m/v"
"description" "Gate-bias dependence of channel width"
)
"dwb" FLOAT DOUBLE PROP(
"units" "m/sqrt(v)"
"description" "Body-bias dependence of channel width"
)
"tox" FLOAT DOUBLE PROP(
"units" "m"
"description" "Gate oxide thickness"
)
"dtoxcv" FLOAT DOUBLE PROP(
"units" "m"
"description" "Delta oxide thickness"
)
"toxm" FLOAT DOUBLE PROP(
"units" "m"
"description" "Tox at which parameters were extracted"
)
"toxe" FLOAT DOUBLE PROP(
"units" "m"
"description" "Electrical gate equivalent oxide thickness"
)
"xt" FLOAT DOUBLE PROP(
"units" "m"
"description" "Doping depth"
)
"rdsw" FLOAT DOUBLE PROP(
"units" "ohm*um^wr"
"description" "Width dependence of drain-source resistance"
)
"prwb" FLOAT DOUBLE PROP(
"units" "1/sqrt(v)"
"description" "Body-effect coefficient for Rds"
)
"prwg" FLOAT DOUBLE PROP(
"units" "1/V"
"description" "Gate-effect coefficient for Rds"
)
"wr" FLOAT DOUBLE PROP(
"description" "Width offset for parasitic resistance"
)
"binflag" FLOAT DOUBLE PROP(
"description" "49 binning factor"
)
"lref" FLOAT DOUBLE PROP(
"description" "49 binning length factor"
)
"wref" FLOAT DOUBLE PROP(
"description" "49 binning width factor"
)
"u0" FLOAT DOUBLE PROP(
"description" "Low-field surface mobility at `tnom'. Default is 250 for PMOS Mobility can also be specified in M2/Vs"
)
"vsat" FLOAT DOUBLE PROP(
"units" "m/s"
"description" "Carrier saturation velocity at `tnom'"
)
"ua" FLOAT DOUBLE PROP(
"units" "m/v"
"description" "First-order mobility reduction coefficient"
)
"ub" FLOAT DOUBLE PROP(
"units" "m^2/v^2"
"description" "Second-order mobility reduction coefficient"
)
"uc" FLOAT DOUBLE PROP(
"units" "m/v^2"
"description" "Body-bias dependence of mobility. Default is -0.046 and unit is 1/V for mobmod=3"
)
"drout" FLOAT DOUBLE PROP(
"description" "DIBL effect on output resistance coefficient"
)
"pclm" FLOAT DOUBLE PROP(
"description" "Channel length modulation coefficient"
)
"pdiblc1" FLOAT DOUBLE PROP(
"description" "First coefficient of drain-induced barrier lowering"
)
"pdiblc2" FLOAT DOUBLE PROP(
"description" "Second coefficient of drain-induced barrier lowering"
)
"pdiblcb" FLOAT DOUBLE PROP(
"units" "1/V"
"description" "Body-effect coefficient for DIBL"
)
"pscbe1" FLOAT DOUBLE PROP(
"units" "V/m"
"description" "First coefficient of substrate current body effect"
)
"pscbe2" FLOAT DOUBLE PROP(
"units" "m/v"
"description" "Second coefficient of substrate current body effect"
)
"pvag" FLOAT DOUBLE PROP(
"description" "Gate dependence of Early voltage"
)
"delta" FLOAT DOUBLE PROP(
"units" "V"
"description" "Effective drain voltage smoothing parameter"
)
"cdsc" FLOAT DOUBLE PROP(
"units" "F/m^2"
"description" "Source/drain and channel coupling capacitance"
)
"cdscb" FLOAT DOUBLE PROP(
"units" "F/m^2*V"
"description" "Body-bias dependence of `cdsc'"
)
"cdscd" FLOAT DOUBLE PROP(
"units" "F/m^2*V"
"description" "Drain-bias dependence of `cdsc'"
)
"nfactor" FLOAT DOUBLE PROP(
"description" "Subthreshold swing coefficient"
)
"cit" FLOAT DOUBLE PROP(
"units" "F/m^2"
"description" "Interface trap parameter for subthreshold swing"
)
"voff" FLOAT DOUBLE PROP(
"units" "V"
"description" "Threshold voltage offset"
)
"dsub" FLOAT DOUBLE PROP(
"description" "DIBL effect in subthreshold region"
)
"eta0" FLOAT DOUBLE PROP(
"description" "DIBL coefficient subthreshold region"
)
"etab" FLOAT DOUBLE PROP(
"units" "1/V"
"description" "Body-bias dependence of `et0'"
)
"alpha0" FLOAT DOUBLE PROP(
"units" "m/v"
"description" "Substrate current impact ionization coefficient"
)
"alpha1" FLOAT DOUBLE PROP(
"units" "1/V"
"description" "Substrate current impact ionization coefficient"
)
"beta0" FLOAT DOUBLE PROP(
"units" "V"
"description" "Substrate current impact ionization exponent"
)
"rsh" FLOAT DOUBLE PROP(
"units" "Ohm/sqr"
"description" "Source/drain diffusion sheet resistance"
)
"rs" FLOAT DOUBLE PROP(
"units" "Ohm"
"description" "Source resistance"
)
"rd" FLOAT DOUBLE PROP(
"units" "Ohm"
"description" "Drain resistance"
)
"lgcs" FLOAT DOUBLE PROP(
"units" "m"
"description" "Gate-to-contact length of source side"
)
"lgcd" FLOAT DOUBLE PROP(
"units" "m"
"description" "Gate-to-contact length of drain side"
)
"rsc" FLOAT DOUBLE PROP(
"units" "Ohm"
"description" "Source contact resistance"
)
"rdc" FLOAT DOUBLE PROP(
"units" "Ohm"
"description" "Drain contact resistance"
)
"rss" FLOAT DOUBLE PROP(
"units" "Ohm*m"
"description" "Scalable source resistance"
)
"rdd" FLOAT DOUBLE PROP(
"units" "Ohm*m"
"description" "Scalable drain resistance"
)
"sc" FLOAT DOUBLE PROP(
"units" "m"
"description" "Spacing between contacts"
)
"ldif" FLOAT DOUBLE PROP(
"units" "m"
"description" "Lateral diffusion beyond the gate"
)
"hdif" FLOAT DOUBLE PROP(
"units" "m"
"description" "Length of heavily doped diffusion"
)
"minr" FLOAT DOUBLE PROP(
"units" "Ohm"
"description" "Minimum source/drain resistance"
)
"js" FLOAT DOUBLE PROP(
"units" "A/m^2"
"description" "Bulk junction reverse saturation current density"
)
"jsw" FLOAT DOUBLE PROP(
"units" "A/m"
"description" "Sidewall junction reverse saturation current density"
)
"jssw" FLOAT DOUBLE PROP(
"units" "A/m"
"description" "Alias of jsw"
)
"is" FLOAT DOUBLE PROP(
"units" "A"
"description" "Bulk junction reverse saturation current"
)
"n" FLOAT DOUBLE PROP(
"description" "Junction emission coefficient"
)
"nj" FLOAT DOUBLE PROP(
"description" "Junction emission coefficient"
)
"jtss" FLOAT DOUBLE PROP(
"units" "A/m^2"
"description" "Source bottom trap-assisted saturation current density"
)
"jtsd" FLOAT DOUBLE PROP(
"units" "A/m^2"
"description" "Drain bottom trap-assisted saturation current density"
)
"jtssws" FLOAT DOUBLE PROP(
"units" "A/m"
"description" "Source isolation-edge sidewall trap-assisted saturation current density"
)
"jtsswd" FLOAT DOUBLE PROP(
"units" "A/m"
"description" "Drain isolation-edge sidewall trap-assisted saturation current density"
)
"jtsswgs" FLOAT DOUBLE PROP(
"units" "A/m"
"description" "Source gate-edge sidewall trap-assisted saturation current density"
)
"jtsswgd" FLOAT DOUBLE PROP(
"units" "A/m"
"description" "Drain gate-edge sidewall trap-assisted saturation current density"
)
"njts" FLOAT DOUBLE PROP(
"description" "Non-ideality factor for Jtss and Jtsd"
)
"njtssw" FLOAT DOUBLE PROP(
"description" "Non-ideality factor for Jtssws and Jtsswd"
)
"njtsswg" FLOAT DOUBLE PROP(
"description" "Non-ideality factor for Jtsswgs and Jtsswgd"
)
"njtsd" FLOAT DOUBLE PROP(
"description" "Non-ideality factor for jtsd"
)
"njtsswd" FLOAT DOUBLE PROP(
"description" "Non-ideality factor for jtsswd"
)
"njtsswgd" FLOAT DOUBLE PROP(
"description" "Non-ideality factor for jtsswgd"
)
"xtss" FLOAT DOUBLE PROP(
"description" "Power dependence of  Jtss on temperature"
)
"xtsd" FLOAT DOUBLE PROP(
"description" "Power dependence of  Jtsd on temperature"
)
"xtssws" FLOAT DOUBLE PROP(
"description" "Power dependence of  Jtssws on temperature"
)
"xtsswd" FLOAT DOUBLE PROP(
"description" "Power dependence of  Jtsswd on temperature"
)
"xtsswgs" FLOAT DOUBLE PROP(
"description" "Power dependence of  Jtsswgs on temperature"
)
"xtsswgd" FLOAT DOUBLE PROP(
"description" "Power dependence of  Jtsswgd on temperature"
)
"vtss" FLOAT DOUBLE PROP(
"units" "V"
"description" "Source bottom trap-assisted voltage dependent parameter"
)
"vtsd" FLOAT DOUBLE PROP(
"units" "V"
"description" "Drain bottom trap-assisted voltage dependent parameter"
)
"vtssws" FLOAT DOUBLE PROP(
"units" "V"
"description" "Source STI sidewall trap-assisted voltage dependent parameter"
)
"vtsswd" FLOAT DOUBLE PROP(
"units" "V"
"description" "Drain STI sidewall trap-assisted voltage dependent parameter"
)
"vtsswgs" FLOAT DOUBLE PROP(
"units" "V"
"description" "Source gate-edge sidewall trap-assisted voltage dependent parameter"
)
"vtsswgd" FLOAT DOUBLE PROP(
"units" "V"
"description" "Drain gate-edge sidewall trap-assisted voltage dependent parameter"
)
"tnjts" FLOAT DOUBLE PROP(
"description" "Temperature coefficient for NJTS"
)
"tnjtssw" FLOAT DOUBLE PROP(
"description" "Temperature coefficient for njtssw"
)
"tnjtsswg" FLOAT DOUBLE PROP(
"description" "Temperature coefficient for njtsswg"
)
"tnjtsd" FLOAT DOUBLE PROP(
"description" "Temperature coefficient for njtsd"
)
"tnjtsswd" FLOAT DOUBLE PROP(
"description" "Temperature coefficient for njtsswd"
)
"tnjtsswgd" FLOAT DOUBLE PROP(
"description" "Temperature coefficient for njtsswgd"
)
"jsswg" FLOAT DOUBLE PROP(
"description" "Sidewall-gate junction reverse saturation current density"
)
"imelt" FLOAT DOUBLE PROP(
"units" "A"
"description" "Explosion current"
)
"ijth" FLOAT DOUBLE PROP(
"units" "A"
"description" "Alias to `imelt'"
)
"jmelt" FLOAT DOUBLE PROP(
"units" "A/m^2"
"description" "Explosion current density"
)
"vnds" FLOAT DOUBLE PROP(
"description" "Reverse diode current transition point"
)
"nds" FLOAT DOUBLE PROP(
"description" "Reverse bias slope coefficient"
)
"tt" FLOAT DOUBLE PROP(
"units" "s"
"description" "Transit time, spice compatible parameter"
)
"cgso" FLOAT DOUBLE PROP(
"units" "F/m"
"description" "Gate-source overlap capacitance"
)
"cgdo" FLOAT DOUBLE PROP(
"units" "F/m"
"description" "Gate-drain overlap capacitance"
)
"cgbo" FLOAT DOUBLE PROP(
"units" "F/m"
"description" "Gate-bulk overlap capacitance. The default value is 0 if version=3.0"
)
"meto" FLOAT DOUBLE PROP(
"units" "m"
"description" "Metal overlap in fringing field"
)
"cgsl" FLOAT DOUBLE PROP(
"units" "F/m"
"description" "Gate-source overlap capacitance in LDD region"
)
"cgdl" FLOAT DOUBLE PROP(
"units" "F/m"
"description" "Gate-drain overlap capacitance in LDD region"
)
"ckappa" FLOAT DOUBLE PROP(
"units" "V"
"description" "Overlap capacitance fitting parameter"
)
"cbs" FLOAT DOUBLE PROP(
"units" "F"
"description" "Bulk-source zero-bias junction capacitance"
)
"cbd" FLOAT DOUBLE PROP(
"units" "F"
"description" "Bulk-drain zero-bias junction capacitance"
)
"cj" FLOAT DOUBLE PROP(
"units" "F/m^2"
"description" "Zero-bias junction bottom capacitance density"
)
"mj" FLOAT DOUBLE PROP(
"description" "Bulk junction bottom grading coefficient"
)
"pb" FLOAT DOUBLE PROP(
"units" "V"
"description" "Bulk junction built-in potential"
)
"fc" FLOAT DOUBLE PROP(
"description" "Forward-bias depletion capacitance threshold"
)
"cjsw" FLOAT DOUBLE PROP(
"units" "F/m"
"description" "Zero-bias junction sidewall capacitance density"
)
"mjsw" FLOAT DOUBLE PROP(
"description" "Bulk junction sidewall grading coefficient"
)
"pbsw" FLOAT DOUBLE PROP(
"units" "V"
"description" "Side-wall junction built-in potential"
)
"cjswg" FLOAT DOUBLE PROP(
"units" "F/m"
"description" "Zero-bias gate-side junction capacitance density"
)
"mjswg" FLOAT DOUBLE PROP(
"description" "Gate-side junction grading coefficient"
)
"pbswg" FLOAT DOUBLE PROP(
"units" "V"
"description" "Gate-side junction built-in potential"
)
"fcsw" FLOAT DOUBLE PROP(
"description" "Side-wall forward-bias depletion capacitance threshold"
)
"dwc" FLOAT DOUBLE PROP(
"units" "m"
"description" "Delta W for capacitance model"
)
"dlc" FLOAT DOUBLE PROP(
"units" "m"
"description" "Delta L for capacitance model"
)
"clc" FLOAT DOUBLE PROP(
"units" "m"
"description" "Intrinsic capacitance fitting parameter"
)
"cle" FLOAT DOUBLE PROP(
"description" "Intrinsic capacitance fitting parameter"
)
"cf" FLOAT DOUBLE PROP(
"units" "F/m"
"description" "Fringe capacitance parameter"
)
"elm" FLOAT DOUBLE PROP(
"description" "Elmore constant of the channel"
)
"vfbcv" FLOAT DOUBLE PROP(
"description" "Flat-band voltage for capmod=0"
)
"acde" FLOAT DOUBLE PROP(
"units" "m/v"
"description" "CV parameter"
)
"moin" FLOAT DOUBLE PROP(
"description" "CV parameter"
)
"noff" FLOAT DOUBLE PROP(
"description" "Transition parameter"
)
"voffcv" FLOAT DOUBLE PROP(
"description" "Transition parameter"
)
"xpart" FLOAT DOUBLE PROP(
"description" "Drain/source channel charge partition in saturation for BSIM charge model, use 0.0 for 40/60, 0.5 for 50/50, or 1.0 for 0/100"
)
"llc" FLOAT DOUBLE PROP(
"units" "m^lln"
"description" "Length dependence of delta L for CV"
)
"lwc" FLOAT DOUBLE PROP(
"units" "m^lwn"
"description" "Width dependence of delta L for CV"
)
"lwlc" FLOAT DOUBLE PROP(
"units" "m^lwn+lln"
"description" "Area dependence of delta L for CV"
)
"wlc" FLOAT DOUBLE PROP(
"units" "m^wln"
"description" "Length dependence of delta W for CV"
)
"wwc" FLOAT DOUBLE PROP(
"units" "m^wwn"
"description" "Width dependence of delta W for CV"
)
"wwlc" FLOAT DOUBLE PROP(
"units" "m^wln+wwn"
"description" "Area dependence of delta W for CV"
)
"wmlt" FLOAT DOUBLE PROP(
"description" "Width shrink reduction factor"
)
"lmlt" FLOAT DOUBLE PROP(
"description" "Length shrink reduction factor"
)
"w" FLOAT DOUBLE PROP(
"units" "m"
"description" "Default channel width"
)
"l" FLOAT DOUBLE PROP(
"units" "m"
"description" "Default channel length"
)
"as" FLOAT DOUBLE PROP(
"units" "m^2"
"description" "Default area of source diffusion"
)
"ad" FLOAT DOUBLE PROP(
"units" "m^2"
"description" "Default area of drain diffusion"
)
"ps" FLOAT DOUBLE PROP(
"units" "m"
"description" "Default perimeter of source diffusion"
)
"pd" FLOAT DOUBLE PROP(
"units" "m"
"description" "Default perimeter of drain diffusion"
)
"nrd" FLOAT DOUBLE PROP(
"units" "m/m"
"description" "Default number of squares of drain diffusion"
)
"nrs" FLOAT DOUBLE PROP(
"units" "m/m"
"description" "Default number of squares of source diffusion"
)
"version" FLOAT DOUBLE PROP(
"description" "Model parameter \"version\" only accepts real number value, like 3.21 for version=3.2.1. The available versions are 3.1(3.1.0), 3.2(3.2.0), 3.21(3.2.1), 3.22(3.2.2), 3.23(3.2.3), 3.24(3.2.4) and 3.3(3.3.0)."
)
"tnom" FLOAT DOUBLE PROP(
"units" "C"
"description" "Parameters measurement temperature. Default set by `options'"
)
"trise" FLOAT DOUBLE PROP(
"units" "C"
"description" "Temperature rise from ambient"
)
"eg" FLOAT DOUBLE PROP(
"units" "V"
"description" "Energy band gap. Defaulted as 1.16 when spice compatible and 1.11 when tlev is 0 or 1 for spice"
)
"gap1" FLOAT DOUBLE PROP(
"units" "V/C"
"description" "Band gap temperature coefficient"
)
"gap2" FLOAT DOUBLE PROP(
"units" "C"
"description" "Band gap temperature offset"
)
"kt1" FLOAT DOUBLE PROP(
"units" "V"
"description" "Temperature coefficient for threshold voltage"
)
"kt1l" FLOAT DOUBLE PROP(
"units" "v*m"
"description" "Temperature coefficient for threshold voltage"
)
"kt2" FLOAT DOUBLE PROP(
"description" "Temperature coefficient for threshold voltage"
)
"at" FLOAT DOUBLE PROP(
"units" "m/s"
"description" "Temperature coefficient for `vsat'"
)
"ua1" FLOAT DOUBLE PROP(
"units" "m/v"
"description" "Temperature coefficient for `ua'"
)
"ub1" FLOAT DOUBLE PROP(
"units" "m^2/v^2"
"description" "Temperature coefficient for `ub'"
)
"uc1" FLOAT DOUBLE PROP(
"units" "m/v^2"
"description" "Temperature coefficient for `uc'. Default is -0.056 for mobmod=3"
)
"prt" FLOAT DOUBLE PROP(
"units" "Ohm"
"description" "Temperature coefficient for Rds"
)
"trs" FLOAT DOUBLE PROP(
"units" "1/C"
"description" "Temperature parameter for source resistance"
)
"trd" FLOAT DOUBLE PROP(
"units" "1/C"
"description" "Temperature parameter for drain resistance"
)
"ute" FLOAT DOUBLE PROP(
"description" "Mobility temperature exponent"
)
"xti" FLOAT DOUBLE PROP(
"description" "Saturation current temperature exponent"
)
"pta" FLOAT DOUBLE PROP(
"units" "V/C"
"description" "Junction potential temperature coefficient"
)
"tpb" FLOAT DOUBLE PROP(
"units" "V/C"
"description" "Temperature coefficient for `pb'"
)
"ptp" FLOAT DOUBLE PROP(
"units" "V/C"
"description" "Sidewall junction potential temperature coefficient"
)
"tpbsw" FLOAT DOUBLE PROP(
"units" "V/C"
"description" "Temperature coefficient for `pbsw'"
)
"tpbswg" FLOAT DOUBLE PROP(
"units" "V/C"
"description" "Temperature coefficient for `pbswg'"
)
"cta" FLOAT DOUBLE PROP(
"units" "1/C"
"description" "Junction capacitance temperature coefficient"
)
"tcj" FLOAT DOUBLE PROP(
"units" "1/C"
"description" "Temperature coefficient for `cj'"
)
"ctp" FLOAT DOUBLE PROP(
"units" "1/C"
"description" "Sidewall junction capacitance temperature coefficient"
)
"tcjsw" FLOAT DOUBLE PROP(
"units" "1/C"
"description" "Temperature coefficient for `cjsw'"
)
"tcjswg" FLOAT DOUBLE PROP(
"units" "1/C"
"description" "Temperature coefficient for `cjswg'"
)
"kf" FLOAT DOUBLE PROP(
"description" "Flicker (1/f) noise coefficient"
)
"af" FLOAT DOUBLE PROP(
"description" "Flicker (1/f) noise exponent"
)
"ef" FLOAT DOUBLE PROP(
"description" "Flicker (1/f) noise frequency exponent"
)
"noia" FLOAT DOUBLE PROP(
"description" "Oxide trap density coefficient. Default is 9.9e18 for pmos"
)
"noib" FLOAT DOUBLE PROP(
"description" "Oxide trap density coefficient. Default is 2.4e3 for pmos"
)
"noic" FLOAT DOUBLE PROP(
"description" "Oxide trap density coefficient. Default is 1.4e-12 for pmos"
)
"noid" FLOAT DOUBLE PROP(
"description" "flicker noise subthreshold-above threshold transition coefficient"
)
"wnoi" FLOAT DOUBLE PROP(
"units" "m"
"description" "Channel width at which noise parameters were extracted"
)
"em" FLOAT DOUBLE PROP(
"units" "V/m"
"description" "Maximum electric field"
)
"gamma" FLOAT DOUBLE PROP(
"description" "Thermal noise coefficient"
)
"gdsnoi" FLOAT DOUBLE PROP(
"description" "Channel thermal noise coefficient for 49 noise"
)
"lintnoi" FLOAT DOUBLE PROP(
"units" "m"
"description" "Lint offset for noise calculation"
)
"agidl" FLOAT DOUBLE PROP(
"units" "1/Ohm"
"description" "Pre-exponential coefficient for GIDL"
)
"bgidl" FLOAT DOUBLE PROP(
"units" "V/m"
"description" "Exponential coefficient for GIDL"
)
"cgidl" FLOAT DOUBLE PROP(
"units" "V^3"
"description" "Parameter for body-bias effect on GIDL"
)
"egidl" FLOAT DOUBLE PROP(
"units" "V"
"description" "Fitting parameter for band bending for GIDL"
)
"agisl" FLOAT DOUBLE PROP(
"units" "1/Ohm"
"description" "Pre-exponential coefficient for GISL"
)
"bgisl" FLOAT DOUBLE PROP(
"units" "V/m"
"description" "Exponential coefficient for GISL"
)
"cgisl" FLOAT DOUBLE PROP(
"units" "V^3"
"description" "Parameter for body-bias effect on GISL"
)
"egisl" FLOAT DOUBLE PROP(
"units" "V"
"description" "Fitting parameter for band bending for GISL"
)
"bforward" FLOAT DOUBLE PROP(
"description" "Forward gate leakage current coefficient in pow()"
)
"breverse" FLOAT DOUBLE PROP(
"description" "Reverse gate leakage current coefficient in pow()"
)
"cforward" FLOAT DOUBLE PROP(
"description" "Forward gate leakage current coefficient in ()"
)
"creverse" FLOAT DOUBLE PROP(
"description" "Reverse gate leakage current coefficient in ()"
)
"tcc" FLOAT DOUBLE PROP(
"description" "Gate leakage current temperature coefficient"
)
"aigbinv" FLOAT DOUBLE PROP(
"units" "sqrt(F/g)*s/m"
"description" "Parameter for Igb in inversion"
)
"bigbinv" FLOAT DOUBLE PROP(
"units" "sqrt(F/g)*s/(m*V)"
"description" "Parameter for Igb in inversion"
)
"cigbinv" FLOAT DOUBLE PROP(
"units" "1/V"
"description" "Parameter for Igb in inversion"
)
"eigbinv" FLOAT DOUBLE PROP(
"units" "V"
"description" "Parameter for Igb in inversion"
)
"nigbinv" FLOAT DOUBLE PROP(
"description" "Parameter for Igb in inversion"
)
"aigbacc" FLOAT DOUBLE PROP(
"units" "sqrt(F/g)*s/m"
"description" "Parameter for Igb in accumulation"
)
"bigbacc" FLOAT DOUBLE PROP(
"units" "sqrt(F/g)*s/(m*V)"
"description" "Parameter for Igb in accumulation"
)
"cigbacc" FLOAT DOUBLE PROP(
"units" "1/V"
"description" "Parameter for Igb in accumulation"
)
"nigbacc" FLOAT DOUBLE PROP(
"description" "Parameter for Igb in accumulation"
)
"aigsd" FLOAT DOUBLE PROP(
"units" "sqrt(F/g)*s/m"
"description" "Parameter for Igs and Igd"
)
"bigsd" FLOAT DOUBLE PROP(
"units" "sqrt(F/g)*s/(m*V)"
"description" "Parameter for Igs and Igd"
)
"cigsd" FLOAT DOUBLE PROP(
"units" "1/V"
"description" "Parameter for Igs and Igd"
)
"aigc" FLOAT DOUBLE PROP(
"units" "sqrt(F/g)*s/m"
"description" "Parameter for Igcs and Igcd"
)
"bigc" FLOAT DOUBLE PROP(
"units" "sqrt(F/g)*s/(m*V)"
"description" "Parameter for Igcs and Igcd"
)
"cigc" FLOAT DOUBLE PROP(
"units" "1/V"
"description" "Parameter for Igcs and Igcd"
)
"nigc" FLOAT DOUBLE PROP(
"description" "Parameter for Igcs, Igcd ,Igs and Igd"
)
"pigcd" FLOAT DOUBLE PROP(
"description" "Vds dependence of Igcs and Igcd"
)
"dlcig" FLOAT DOUBLE PROP(
"units" "m"
"description" "Source/drain overlap length for Igs and Igd"
)
"ntox" FLOAT DOUBLE PROP(
"description" "Exponent for the gate oxide ratio"
)
"toxref" FLOAT DOUBLE PROP(
"units" "m"
"description" "Nominal gate oxide thickness for gate dielectric tunneling current model only"
)
"poxedge" FLOAT DOUBLE PROP(
"description" "Factor for the gate oxide thickness in source/drain overlap regions"
)
"wmax" FLOAT DOUBLE PROP(
"units" "m"
"description" "Maximum channel width for which the model is valid"
)
"wmin" FLOAT DOUBLE PROP(
"units" "m"
"description" "Minimum channel width for which the model is valid"
)
"lmax" FLOAT DOUBLE PROP(
"units" "m"
"description" "Maximum channel length for which the model is valid"
)
"lmin" FLOAT DOUBLE PROP(
"units" "m"
"description" "Minimum channel length for which the model is valid"
)
"imax" FLOAT DOUBLE PROP(
"units" "A"
"description" "Maximum allowable current"
)
"jmax" FLOAT DOUBLE PROP(
"units" "A/m^2"
"description" "Maximum allowable current density"
)
"bvj" FLOAT DOUBLE PROP(
"units" "V"
"description" "Junction reverse breakdown voltage"
)
"vbox" FLOAT DOUBLE PROP(
"units" "V"
"description" "Oxide breakdown voltage"
)
"vds_max" FLOAT DOUBLE PROP(
"units" "V"
"description" "Maximum allowed voltage cross source and drain"
)
"vgd_max" FLOAT DOUBLE PROP(
"units" "V"
"description" "Maximum allowed voltage cross gate and drain"
)
"vgs_max" FLOAT DOUBLE PROP(
"units" "V"
"description" "Maximum allowed voltage cross gate and source/bulk"
)
"vbd_max" FLOAT DOUBLE PROP(
"units" "V"
"description" "Maximum allowed voltage cross source/drain and bulk"
)
"vbs_max" FLOAT DOUBLE PROP(
"units" "V"
"description" "Maximum allowed voltage cross source and bulk"
)
"vgb_max" FLOAT DOUBLE PROP(
"units" "V"
"description" "Maximum allowed voltage cross gate and bulk"
)
"vgdr_max" FLOAT DOUBLE PROP(
"units" "V"
"description" "Maximum allowed reverse voltage cross gate and drain"
)
"vgsr_max" FLOAT DOUBLE PROP(
"units" "V"
"description" "Maximum allowed reverse voltage cross gate and source"
)
"vgbr_max" FLOAT DOUBLE PROP(
"units" "V"
"description" "Maximum allowed reverse voltage cross gate and bulk"
)
"vbsr_max" FLOAT DOUBLE PROP(
"units" "V"
"description" "Maximum allowed reverse voltage cross bulk and source"
)
"vbdr_max" FLOAT DOUBLE PROP(
"units" "V"
"description" "Maximum allowed reverse voltage cross bulk and drain"
)
"lvtho" FLOAT DOUBLE PROP(
"description" "Length dependence of Vth0"
)
"lvth0" FLOAT DOUBLE PROP(
"description" "Alias of lvtho"
)
"lk1" FLOAT DOUBLE PROP(
"description" "Length dependence of k1"
)
"lk2" FLOAT DOUBLE PROP(
"description" "Length dependence of k2"
)
"lk3" FLOAT DOUBLE PROP(
"description" "Length dependence of k3"
)
"lk3b" FLOAT DOUBLE PROP(
"description" "Length dependence of k3b"
)
"lw0" FLOAT DOUBLE PROP(
"description" "Length dependence of w0"
)
"lnlx" FLOAT DOUBLE PROP(
"description" "Length dependence of nlx"
)
"lgamma1" FLOAT DOUBLE PROP(
"description" "Length dependence of gamma1"
)
"lgamma2" FLOAT DOUBLE PROP(
"description" "Length dependence of gamma2"
)
"lvbx" FLOAT DOUBLE PROP(
"description" "Length dependence of vbx"
)
"lvbm" FLOAT DOUBLE PROP(
"description" "Length dependence of vbm"
)
"ldvt0" FLOAT DOUBLE PROP(
"description" "Length dependence of dvt0"
)
"ldvt1" FLOAT DOUBLE PROP(
"description" "Length dependence of dvt1"
)
"ldvt2" FLOAT DOUBLE PROP(
"description" "Length dependence of dvt2"
)
"ldvt0w" FLOAT DOUBLE PROP(
"description" "Length dependence of dvt0w"
)
"ldvt1w" FLOAT DOUBLE PROP(
"description" "Length dependence of dvt1w"
)
"ldvt2w" FLOAT DOUBLE PROP(
"description" "Length dependence of dvt2w"
)
"la0" FLOAT DOUBLE PROP(
"description" "Length dependence of a0"
)
"lb0" FLOAT DOUBLE PROP(
"description" "Length dependence of b0"
)
"lb1" FLOAT DOUBLE PROP(
"description" "Length dependence of b1"
)
"la1" FLOAT DOUBLE PROP(
"description" "Length dependence of a1"
)
"la2" FLOAT DOUBLE PROP(
"description" "Length dependence of a2"
)
"lags" FLOAT DOUBLE PROP(
"description" "Length dependence of ags"
)
"lketa" FLOAT DOUBLE PROP(
"description" "Length dependence of keta"
)
"lnsub" FLOAT DOUBLE PROP(
"description" "Length dependence of nsub"
)
"lnch" FLOAT DOUBLE PROP(
"description" "Length dependence of nch"
)
"lngate" FLOAT DOUBLE PROP(
"description" "Length dependence of ngate"
)
"lxj" FLOAT DOUBLE PROP(
"description" "Length dependence of xj"
)
"ldwg" FLOAT DOUBLE PROP(
"description" "Length dependence of dwg"
)
"ldwb" FLOAT DOUBLE PROP(
"description" "Length dependence of dwb"
)
"lxt" FLOAT DOUBLE PROP(
"description" "Length dependence of xt"
)
"lrdsw" FLOAT DOUBLE PROP(
"description" "Length dependence of rdsw"
)
"lprwb" FLOAT DOUBLE PROP(
"description" "Length dependence of prwb"
)
"lprwg" FLOAT DOUBLE PROP(
"description" "Length dependence of prwg"
)
"lwr" FLOAT DOUBLE PROP(
"description" "Length dependence of wr"
)
"lu0" FLOAT DOUBLE PROP(
"description" "Length dependence of u0"
)
"lvsat" FLOAT DOUBLE PROP(