HEADER
"PSFversion" "1.00"
"simulator" "spectre"
"version" "19.1.0.237.isr3"
"date" "1:46:54 AM, Sat Sep 10, 2022"
"design" "// Generated for: spectre"
"analysis type" "info"
"analysis name" "designParamVals"
"analysis description" "Circuit Information"
"xVecSorted" "unknown"
"tolerance.relative" 0.00100000
TYPE
"top-level" STRUCT(
"temp" FLOAT DOUBLE
"tnom" FLOAT DOUBLE
"time" FLOAT DOUBLE
"nshort_tox_mult" FLOAT DOUBLE
"nshort_lint_diff" FLOAT DOUBLE
"nshort_wint_diff" FLOAT DOUBLE
"nshort_deltal_diff" FLOAT DOUBLE
"nshort_dwc_diff" FLOAT DOUBLE
"nshort_dvt0_diff" FLOAT DOUBLE
"nshort_nlx_diff" FLOAT DOUBLE
"nshort_dvt1_diff" FLOAT DOUBLE
"nshort_dvt2_diff" FLOAT DOUBLE
"nshort_dvt0w_diff" FLOAT DOUBLE
"nshort_vth0_diff" FLOAT DOUBLE
"nshort_k2_diff" FLOAT DOUBLE
"nshort_k3_diff" FLOAT DOUBLE
"nshort_k3b_diff" FLOAT DOUBLE
"nshort_u0_diff" FLOAT DOUBLE
"nshort_ua_diff" FLOAT DOUBLE
"nshort_ub_diff" FLOAT DOUBLE
"nshort_uc_diff" FLOAT DOUBLE
"nshort_a0_diff" FLOAT DOUBLE
"nshort_ags_diff" FLOAT DOUBLE
"nshort_rdsw_diff" FLOAT DOUBLE
"nshort_vsat_diff" FLOAT DOUBLE
"nshort_keta_diff" FLOAT DOUBLE
"nshort_dwg_diff" FLOAT DOUBLE
"nshort_b0_diff" FLOAT DOUBLE
"nshort_ajunction_mult" FLOAT DOUBLE
"nshort_pjunction_mult" FLOAT DOUBLE
"nshort_overlap_mult" FLOAT DOUBLE
"nshort_dlc_diff" FLOAT DOUBLE
"nshort_voff_diff" FLOAT DOUBLE
"nshort_nfactor_diff" FLOAT DOUBLE
"nshort_cit_diff" FLOAT DOUBLE
"nshort_cdsc_diff" FLOAT DOUBLE
"nshort_cdscb_diff" FLOAT DOUBLE
"nshort_cdscd_diff" FLOAT DOUBLE
"nshort_kt1_diff" FLOAT DOUBLE
"nshort_kt2_diff" FLOAT DOUBLE
"nshort_kt1l_diff" FLOAT DOUBLE
"lvnnative_tox_mult" FLOAT DOUBLE
"lvnnative_lint_diff" FLOAT DOUBLE
"lvnnative_wint_diff" FLOAT DOUBLE
"lvnnative_deltal_diff" FLOAT DOUBLE
"lvnnative_dlc_diff" FLOAT DOUBLE
"lvnnative_dwc_diff" FLOAT DOUBLE
"lvnnative_dvt0_diff" FLOAT DOUBLE
"lvnnative_nlx_diff" FLOAT DOUBLE
"lvnnative_dvt1_diff" FLOAT DOUBLE
"lvnnative_dvt2_diff" FLOAT DOUBLE
"lvnnative_dvt0w_diff" FLOAT DOUBLE
"lvnnative_vth0_diff" FLOAT DOUBLE
"lvnnative_k2_diff" FLOAT DOUBLE
"lvnnative_k3_diff" FLOAT DOUBLE
"lvnnative_k3b_diff" FLOAT DOUBLE
"lvnnative_u0_diff" FLOAT DOUBLE
"lvnnative_ua_diff" FLOAT DOUBLE
"lvnnative_ub_diff" FLOAT DOUBLE
"lvnnative_uc_diff" FLOAT DOUBLE
"lvnnative_a0_diff" FLOAT DOUBLE
"lvnnative_ags_diff" FLOAT DOUBLE
"lvnnative_rdsw_diff" FLOAT DOUBLE
"lvnnative_vsat_diff" FLOAT DOUBLE
"lvnnative_ajunction_mult" FLOAT DOUBLE
"lvnnative_pjunction_mult" FLOAT DOUBLE
"lvnnative_overlap_mult" FLOAT DOUBLE
"lvnnative_voff_diff" FLOAT DOUBLE
"lvnnative_nfactor_diff" FLOAT DOUBLE
"lvnnative_cit_diff" FLOAT DOUBLE
"lvnnative_cdsc_diff" FLOAT DOUBLE
"lvnnative_cdscb_diff" FLOAT DOUBLE
"lvnnative_cdscd_diff" FLOAT DOUBLE
"lvnnative_kt1_diff" FLOAT DOUBLE
"lvnnative_kt2_diff" FLOAT DOUBLE
"lvnnative_kt1l_diff" FLOAT DOUBLE
"nthick_tox_mult" FLOAT DOUBLE
"nthick_lint_diff" FLOAT DOUBLE
"nthick_wint_diff" FLOAT DOUBLE
"nthick_deltal_diff" FLOAT DOUBLE
"nthick_dlc_diff" FLOAT DOUBLE
"nthick_dwc_diff" FLOAT DOUBLE
"nthick_dvt0_diff" FLOAT DOUBLE
"nthick_nlx_diff" FLOAT DOUBLE
"nthick_dvt1_diff" FLOAT DOUBLE
"nthick_dvt2_diff" FLOAT DOUBLE
"nthick_dvt0w_diff" FLOAT DOUBLE
"nthick_vth0_diff" FLOAT DOUBLE
"nthick_k2_diff" FLOAT DOUBLE
"nthick_k3_diff" FLOAT DOUBLE
"nthick_k3b_diff" FLOAT DOUBLE
"nthick_u0_diff" FLOAT DOUBLE
"nthick_ua_diff" FLOAT DOUBLE
"nthick_ub_diff" FLOAT DOUBLE
"nthick_uc_diff" FLOAT DOUBLE
"nthick_a0_diff" FLOAT DOUBLE
"nthick_ags_diff" FLOAT DOUBLE
"nthick_b0_diff" FLOAT DOUBLE
"nthick_b1_diff" FLOAT DOUBLE
"nthick_dwg_diff" FLOAT DOUBLE
"nthick_rdsw_diff" FLOAT DOUBLE
"nthick_vsat_diff" FLOAT DOUBLE
"nthick_ajunction_mult" FLOAT DOUBLE
"nthick_pjunction_mult" FLOAT DOUBLE
"nthick_overlap_mult" FLOAT DOUBLE
"nthick_voff_diff" FLOAT DOUBLE
"nthick_nfactor_diff" FLOAT DOUBLE
"nthick_cit_diff" FLOAT DOUBLE
"nthick_cdsc_diff" FLOAT DOUBLE
"nthick_cdscb_diff" FLOAT DOUBLE
"nthick_cdscd_diff" FLOAT DOUBLE
"nthick_kt1_diff" FLOAT DOUBLE
"nthick_kt2_diff" FLOAT DOUBLE
"nthick_kt1l_diff" FLOAT DOUBLE
"ntcam_tox_mult" FLOAT DOUBLE
"ntcam_lint_diff" FLOAT DOUBLE
"ntcam_wint_diff" FLOAT DOUBLE
"ntcam_deltal_diff" FLOAT DOUBLE
"ntcam_dlc_diff" FLOAT DOUBLE
"ntcam_dwc_diff" FLOAT DOUBLE
"ntcam_dvt0_diff" FLOAT DOUBLE
"ntcam_nlx_diff" FLOAT DOUBLE
"ntcam_dvt1_diff" FLOAT DOUBLE
"ntcam_dvt2_diff" FLOAT DOUBLE
"ntcam_dvt0w_diff" FLOAT DOUBLE
"ntcam_vth0_diff" FLOAT DOUBLE
"ntcam_k2_diff" FLOAT DOUBLE
"ntcam_k3_diff" FLOAT DOUBLE
"ntcam_k3b_diff" FLOAT DOUBLE
"ntcam_u0_diff" FLOAT DOUBLE
"ntcam_ua_diff" FLOAT DOUBLE
"ntcam_ub_diff" FLOAT DOUBLE
"ntcam_uc_diff" FLOAT DOUBLE
"ntcam_a0_diff" FLOAT DOUBLE
"ntcam_ags_diff" FLOAT DOUBLE
"ntcam_rdsw_diff" FLOAT DOUBLE
"ntcam_vsat_diff" FLOAT DOUBLE
"ntcam_ajunction_mult" FLOAT DOUBLE
"ntcam_pjunction_mult" FLOAT DOUBLE
"ntcam_overlap_mult" FLOAT DOUBLE
"ntcam_voff_diff" FLOAT DOUBLE
"ntcam_nfactor_diff" FLOAT DOUBLE
"ntcam_cit_diff" FLOAT DOUBLE
"ntcam_cdsc_diff" FLOAT DOUBLE
"ntcam_cdscb_diff" FLOAT DOUBLE
"ntcam_cdscd_diff" FLOAT DOUBLE
"ntcam_kt1_diff" FLOAT DOUBLE
"ntcam_kt2_diff" FLOAT DOUBLE
"ntcam_kt1l_diff" FLOAT DOUBLE
"nwdiode_ajunction_mult" FLOAT DOUBLE
"nwdiode_pjunction_mult" FLOAT DOUBLE
"preres_ajunction_mult" FLOAT DOUBLE
"preres_pjunction_mult" FLOAT DOUBLE
"dkispp" FLOAT DOUBLE
"dkbfpp" FLOAT DOUBLE
"pshort_tox_mult" FLOAT DOUBLE
"pshort_lint_diff" FLOAT DOUBLE
"pshort_wint_diff" FLOAT DOUBLE
"pshort_deltal_diff" FLOAT DOUBLE
"pshort_dlc_diff" FLOAT DOUBLE
"pshort_dwc_diff" FLOAT DOUBLE
"pshort_dvt0_diff" FLOAT DOUBLE
"pshort_nlx_diff" FLOAT DOUBLE
"pshort_dvt1_diff" FLOAT DOUBLE
"pshort_dvt2_diff" FLOAT DOUBLE
"pshort_dvt0w_diff" FLOAT DOUBLE
"pshort_vth0_diff" FLOAT DOUBLE
"pshort_k2_diff" FLOAT DOUBLE
"pshort_k3_diff" FLOAT DOUBLE
"pshort_k3b_diff" FLOAT DOUBLE
"pshort_u0_diff" FLOAT DOUBLE
"pshort_ua_diff" FLOAT DOUBLE
"pshort_ub_diff" FLOAT DOUBLE
"pshort_uc_diff" FLOAT DOUBLE
"pshort_a0_diff" FLOAT DOUBLE
"pshort_ags_diff" FLOAT DOUBLE
"pshort_b0_diff" FLOAT DOUBLE
"pshort_dwg_diff" FLOAT DOUBLE
"pshort_rdsw_diff" FLOAT DOUBLE
"pshort_vsat_diff" FLOAT DOUBLE
"pshort_ajunction_mult" FLOAT DOUBLE
"pshort_pjunction_mult" FLOAT DOUBLE
"pshort_overlap_mult" FLOAT DOUBLE
"pshort_voff_diff" FLOAT DOUBLE
"pshort_nfactor_diff" FLOAT DOUBLE
"pshort_cit_diff" FLOAT DOUBLE
"pshort_cdsc_diff" FLOAT DOUBLE
"pshort_cdscb_diff" FLOAT DOUBLE
"pshort_cdscd_diff" FLOAT DOUBLE
"pshort_kt1_diff" FLOAT DOUBLE
"pshort_kt2_diff" FLOAT DOUBLE
"pshort_kt1l_diff" FLOAT DOUBLE
"pthick_tox_mult" FLOAT DOUBLE
"pthick_lint_diff" FLOAT DOUBLE
"pthick_wint_diff" FLOAT DOUBLE
"pthick_deltal_diff" FLOAT DOUBLE
"pthick_dwc_diff" FLOAT DOUBLE
"pthick_dvt0_diff" FLOAT DOUBLE
"pthick_nlx_diff" FLOAT DOUBLE
"pthick_dvt1_diff" FLOAT DOUBLE
"pthick_dvt2_diff" FLOAT DOUBLE
"pthick_dvt0w_diff" FLOAT DOUBLE
"pthick_vth0_diff" FLOAT DOUBLE
"pthick_k2_diff" FLOAT DOUBLE
"pthick_k3_diff" FLOAT DOUBLE
"pthick_k3b_diff" FLOAT DOUBLE
"pthick_u0_diff" FLOAT DOUBLE
"pthick_ua_diff" FLOAT DOUBLE
"pthick_ub_diff" FLOAT DOUBLE
"pthick_uc_diff" FLOAT DOUBLE
"pthick_a0_diff" FLOAT DOUBLE
"pthick_ags_diff" FLOAT DOUBLE
"pthick_dwg_diff" FLOAT DOUBLE
"pthick_b0_diff" FLOAT DOUBLE
"pthick_b1_diff" FLOAT DOUBLE
"pthick_rdsw_diff" FLOAT DOUBLE
"pthick_vsat_diff" FLOAT DOUBLE
"pthick_ajunction_mult" FLOAT DOUBLE
"pthick_pjunction_mult" FLOAT DOUBLE
"pthick_overlap_mult" FLOAT DOUBLE
"pthick_dlc_diff" FLOAT DOUBLE
"pthick_voff_diff" FLOAT DOUBLE
"pthick_nfactor_diff" FLOAT DOUBLE
"pthick_cit_diff" FLOAT DOUBLE
"pthick_cdsc_diff" FLOAT DOUBLE
"pthick_cdscb_diff" FLOAT DOUBLE
"pthick_cdscd_diff" FLOAT DOUBLE
"pthick_kt1_diff" FLOAT DOUBLE
"pthick_kt2_diff" FLOAT DOUBLE
"pthick_kt1l_diff" FLOAT DOUBLE
"r0rn_8_2" FLOAT DOUBLE
"r1rn_8_2" FLOAT DOUBLE
"r0rn_6_2" FLOAT DOUBLE
"r1rn_6_2" FLOAT DOUBLE
"r0rn_6_1" FLOAT DOUBLE
"r1rn_6_1" FLOAT DOUBLE
"r0rn_4_1" FLOAT DOUBLE
"r1rn_4_1" FLOAT DOUBLE
"r0rp_8_2" FLOAT DOUBLE
"r1rp_8_2" FLOAT DOUBLE
"r0rp_8_3" FLOAT DOUBLE
"r1rp_8_3" FLOAT DOUBLE
"r0rp_6_2" FLOAT DOUBLE
"r1rp_6_2" FLOAT DOUBLE
"r0rp_6_3" FLOAT DOUBLE
"r1rp_6_3" FLOAT DOUBLE
"cint1" FLOAT DOUBLE
"cintsub1" FLOAT DOUBLE
"cint2" FLOAT DOUBLE
"cintsub2" FLOAT DOUBLE
"camimc1" FLOAT DOUBLE
"cpmimc" FLOAT DOUBLE
"camimc2" FLOAT DOUBLE
"camimc2_hd" FLOAT DOUBLE
"dwmimc2_hd" FLOAT DOUBLE
"rcnf_u" FLOAT DOUBLE
"rcnf_b" FLOAT DOUBLE
"vc1cnf" FLOAT DOUBLE
"vc2cnf" FLOAT DOUBLE
"cfuse" FLOAT DOUBLE
"mm_z1" FLOAT DOUBLE
"mm_z2" FLOAT DOUBLE
"globalk" FLOAT DOUBLE
"localkswitch" FLOAT DOUBLE
"capunits" FLOAT DOUBLE
"mcp1f_ca_w_0_100_s_0_180" FLOAT DOUBLE
"mcp1f_cc_w_0_100_s_0_180" FLOAT DOUBLE
"mcp1f_cf_w_0_100_s_0_180" FLOAT DOUBLE
"mcp1f_ca_w_0_100_s_0_280" FLOAT DOUBLE
"mcp1f_cc_w_0_100_s_0_280" FLOAT DOUBLE
"mcp1f_cf_w_0_100_s_0_280" FLOAT DOUBLE
"mcp1f_ca_w_0_100_s_0_380" FLOAT DOUBLE
"mcp1f_cc_w_0_100_s_0_380" FLOAT DOUBLE
"mcp1f_cf_w_0_100_s_0_380" FLOAT DOUBLE
"mcp1f_ca_w_0_100_s_0_480" FLOAT DOUBLE
"mcp1f_cc_w_0_100_s_0_480" FLOAT DOUBLE
"mcp1f_cf_w_0_100_s_0_480" FLOAT DOUBLE
"mcp1f_ca_w_0_100_s_0_580" FLOAT DOUBLE
"mcp1f_cc_w_0_100_s_0_580" FLOAT DOUBLE
"mcp1f_cf_w_0_100_s_0_580" FLOAT DOUBLE
"mcp1f_ca_w_0_100_s_0_680" FLOAT DOUBLE
"mcp1f_cc_w_0_100_s_0_680" FLOAT DOUBLE
"mcp1f_cf_w_0_100_s_0_680" FLOAT DOUBLE
"mcp1f_ca_w_0_100_s_1_180" FLOAT DOUBLE
"mcp1f_cc_w_0_100_s_1_180" FLOAT DOUBLE
"mcp1f_cf_w_0_100_s_1_180" FLOAT DOUBLE
"mcp1f_ca_w_0_100_s_2_180" FLOAT DOUBLE
"mcp1f_cc_w_0_100_s_2_180" FLOAT DOUBLE
"mcp1f_cf_w_0_100_s_2_180" FLOAT DOUBLE
"mcp1f_ca_w_0_100_s_3_180" FLOAT DOUBLE
"mcp1f_cc_w_0_100_s_3_180" FLOAT DOUBLE
"mcp1f_cf_w_0_100_s_3_180" FLOAT DOUBLE
"mcp1f_ca_w_0_100_s_4_180" FLOAT DOUBLE
"mcp1f_cc_w_0_100_s_4_180" FLOAT DOUBLE
"mcp1f_cf_w_0_100_s_4_180" FLOAT DOUBLE
"mcp1f_ca_w_3_200_s_0_180" FLOAT DOUBLE
"mcp1f_cc_w_3_200_s_0_180" FLOAT DOUBLE
"mcp1f_cf_w_3_200_s_0_180" FLOAT DOUBLE
"mcp1f_ca_w_3_200_s_0_280" FLOAT DOUBLE
"mcp1f_cc_w_3_200_s_0_280" FLOAT DOUBLE
"mcp1f_cf_w_3_200_s_0_280" FLOAT DOUBLE
"mcp1f_ca_w_3_200_s_0_380" FLOAT DOUBLE
"mcp1f_cc_w_3_200_s_0_380" FLOAT DOUBLE
"mcp1f_cf_w_3_200_s_0_380" FLOAT DOUBLE
"mcp1f_ca_w_3_200_s_0_480" FLOAT DOUBLE
"mcp1f_cc_w_3_200_s_0_480" FLOAT DOUBLE
"mcp1f_cf_w_3_200_s_0_480" FLOAT DOUBLE
"mcp1f_ca_w_3_200_s_0_580" FLOAT DOUBLE
"mcp1f_cc_w_3_200_s_0_580" FLOAT DOUBLE
"mcp1f_cf_w_3_200_s_0_580" FLOAT DOUBLE
"mcp1f_ca_w_3_200_s_0_680" FLOAT DOUBLE
"mcp1f_cc_w_3_200_s_0_680" FLOAT DOUBLE
"mcp1f_cf_w_3_200_s_0_680" FLOAT DOUBLE
"mcp1f_ca_w_3_200_s_1_180" FLOAT DOUBLE
"mcp1f_cc_w_3_200_s_1_180" FLOAT DOUBLE
"mcp1f_cf_w_3_200_s_1_180" FLOAT DOUBLE
"mcp1f_ca_w_3_200_s_2_180" FLOAT DOUBLE
"mcp1f_cc_w_3_200_s_2_180" FLOAT DOUBLE
"mcp1f_cf_w_3_200_s_2_180" FLOAT DOUBLE
"mcp1f_ca_w_3_200_s_3_180" FLOAT DOUBLE
"mcp1f_cc_w_3_200_s_3_180" FLOAT DOUBLE
"mcp1f_cf_w_3_200_s_3_180" FLOAT DOUBLE
"mcp1f_ca_w_3_200_s_4_180" FLOAT DOUBLE
"mcp1f_cc_w_3_200_s_4_180" FLOAT DOUBLE
"mcp1f_cf_w_3_200_s_4_180" FLOAT DOUBLE
"mclitrf_ca_w_0_130_s_0_130" FLOAT DOUBLE
"mclitrf_cc_w_0_130_s_0_130" FLOAT DOUBLE
"mclitrf_cf_w_0_130_s_0_130" FLOAT DOUBLE
"mclitrf_ca_w_0_130_s_0_190" FLOAT DOUBLE
"mclitrf_cc_w_0_130_s_0_190" FLOAT DOUBLE
"mclitrf_cf_w_0_130_s_0_190" FLOAT DOUBLE
"mclitrf_ca_w_0_130_s_0_250" FLOAT DOUBLE
"mclitrf_cc_w_0_130_s_0_250" FLOAT DOUBLE
"mclitrf_cf_w_0_130_s_0_250" FLOAT DOUBLE
"mclitrf_ca_w_0_130_s_0_310" FLOAT DOUBLE
"mclitrf_cc_w_0_130_s_0_310" FLOAT DOUBLE
"mclitrf_cf_w_0_130_s_0_310" FLOAT DOUBLE
"mclitrf_ca_w_0_130_s_0_370" FLOAT DOUBLE
"mclitrf_cc_w_0_130_s_0_370" FLOAT DOUBLE
"mclitrf_cf_w_0_130_s_0_370" FLOAT DOUBLE
"mclitrf_ca_w_0_130_s_0_430" FLOAT DOUBLE
"mclitrf_cc_w_0_130_s_0_430" FLOAT DOUBLE
"mclitrf_cf_w_0_130_s_0_430" FLOAT DOUBLE
"mclitrf_ca_w_0_130_s_0_730" FLOAT DOUBLE
"mclitrf_cc_w_0_130_s_0_730" FLOAT DOUBLE
"mclitrf_cf_w_0_130_s_0_730" FLOAT DOUBLE
"mclitrf_ca_w_0_130_s_1_730" FLOAT DOUBLE
"mclitrf_cc_w_0_130_s_1_730" FLOAT DOUBLE
"mclitrf_cf_w_0_130_s_1_730" FLOAT DOUBLE
"mclitrf_ca_w_0_130_s_2_730" FLOAT DOUBLE
"mclitrf_cc_w_0_130_s_2_730" FLOAT DOUBLE
"mclitrf_cf_w_0_130_s_2_730" FLOAT DOUBLE
"mclitrf_ca_w_0_130_s_3_730" FLOAT DOUBLE
"mclitrf_cc_w_0_130_s_3_730" FLOAT DOUBLE
"mclitrf_cf_w_0_130_s_3_730" FLOAT DOUBLE
"mcddl1f_ca_w_0_100_s_0_100" FLOAT DOUBLE
"mcddl1f_cc_w_0_100_s_0_100" FLOAT DOUBLE
"mcddl1f_cf_w_0_100_s_0_100" FLOAT DOUBLE
"mcddl1f_ca_w_0_100_s_0_160" FLOAT DOUBLE
"mcddl1f_cc_w_0_100_s_0_160" FLOAT DOUBLE
"mcddl1f_cf_w_0_100_s_0_160" FLOAT DOUBLE
"mcddl1f_ca_w_0_100_s_0_220" FLOAT DOUBLE
"mcddl1f_cc_w_0_100_s_0_220" FLOAT DOUBLE
"mcddl1f_cf_w_0_100_s_0_220" FLOAT DOUBLE
"mcddl1f_ca_w_0_100_s_0_280" FLOAT DOUBLE
"mcddl1f_cc_w_0_100_s_0_280" FLOAT DOUBLE
"mcddl1f_cf_w_0_100_s_0_280" FLOAT DOUBLE
"mcddl1f_ca_w_0_100_s_0_340" FLOAT DOUBLE
"mcddl1f_cc_w_0_100_s_0_340" FLOAT DOUBLE
"mcddl1f_cf_w_0_100_s_0_340" FLOAT DOUBLE
"mcddl1f_ca_w_0_100_s_0_400" FLOAT DOUBLE
"mcddl1f_cc_w_0_100_s_0_400" FLOAT DOUBLE
"mcddl1f_cf_w_0_100_s_0_400" FLOAT DOUBLE
"mcddl1f_ca_w_0_100_s_0_700" FLOAT DOUBLE
"mcddl1f_cc_w_0_100_s_0_700" FLOAT DOUBLE
"mcddl1f_cf_w_0_100_s_0_700" FLOAT DOUBLE
"mcddl1f_ca_w_0_100_s_1_700" FLOAT DOUBLE
"mcddl1f_cc_w_0_100_s_1_700" FLOAT DOUBLE
"mcddl1f_cf_w_0_100_s_1_700" FLOAT DOUBLE
"mcddl1f_ca_w_0_100_s_2_700" FLOAT DOUBLE
"mcddl1f_cc_w_0_100_s_2_700" FLOAT DOUBLE
"mcddl1f_cf_w_0_100_s_2_700" FLOAT DOUBLE
"mcddl1f_ca_w_0_100_s_3_700" FLOAT DOUBLE
"mcddl1f_cc_w_0_100_s_3_700" FLOAT DOUBLE
"mcddl1f_cf_w_0_100_s_3_700" FLOAT DOUBLE
"mcddl1f_ca_w_3_200_s_0_100" FLOAT DOUBLE
"mcddl1f_cc_w_3_200_s_0_100" FLOAT DOUBLE
"mcddl1f_cf_w_3_200_s_0_100" FLOAT DOUBLE
"mcddl1f_ca_w_3_200_s_0_160" FLOAT DOUBLE
"mcddl1f_cc_w_3_200_s_0_160" FLOAT DOUBLE
"mcddl1f_cf_w_3_200_s_0_160" FLOAT DOUBLE
"mcddl1f_ca_w_3_200_s_0_220" FLOAT DOUBLE
"mcddl1f_cc_w_3_200_s_0_220" FLOAT DOUBLE
"mcddl1f_cf_w_3_200_s_0_220" FLOAT DOUBLE
"mcddl1f_ca_w_3_200_s_0_280" FLOAT DOUBLE
"mcddl1f_cc_w_3_200_s_0_280" FLOAT DOUBLE
"mcddl1f_cf_w_3_200_s_0_280" FLOAT DOUBLE
"mcddl1f_ca_w_3_200_s_0_340" FLOAT DOUBLE
"mcddl1f_cc_w_3_200_s_0_340" FLOAT DOUBLE
"mcddl1f_cf_w_3_200_s_0_340" FLOAT DOUBLE
"mcddl1f_ca_w_3_200_s_0_400" FLOAT DOUBLE
"mcddl1f_cc_w_3_200_s_0_400" FLOAT DOUBLE
"mcddl1f_cf_w_3_200_s_0_400" FLOAT DOUBLE
"mcddl1f_ca_w_3_200_s_0_700" FLOAT DOUBLE
"mcddl1f_cc_w_3_200_s_0_700" FLOAT DOUBLE
"mcddl1f_cf_w_3_200_s_0_700" FLOAT DOUBLE
"mcddl1f_ca_w_3_200_s_1_700" FLOAT DOUBLE
"mcddl1f_cc_w_3_200_s_1_700" FLOAT DOUBLE
"mcddl1f_cf_w_3_200_s_1_700" FLOAT DOUBLE
"mcddl1f_ca_w_3_200_s_2_700" FLOAT DOUBLE
"mcddl1f_cc_w_3_200_s_2_700" FLOAT DOUBLE
"mcddl1f_cf_w_3_200_s_2_700" FLOAT DOUBLE
"mcddl1f_ca_w_3_200_s_3_700" FLOAT DOUBLE
"mcddl1f_cc_w_3_200_s_3_700" FLOAT DOUBLE
"mcddl1f_cf_w_3_200_s_3_700" FLOAT DOUBLE
"mcddl1d_ca_w_0_100_s_0_100" FLOAT DOUBLE
"mcddl1d_cc_w_0_100_s_0_100" FLOAT DOUBLE
"mcddl1d_cf_w_0_100_s_0_100" FLOAT DOUBLE
"mcddl1d_ca_w_0_100_s_0_160" FLOAT DOUBLE
"mcddl1d_cc_w_0_100_s_0_160" FLOAT DOUBLE
"mcddl1d_cf_w_0_100_s_0_160" FLOAT DOUBLE
"mcddl1d_ca_w_0_100_s_0_220" FLOAT DOUBLE
"mcddl1d_cc_w_0_100_s_0_220" FLOAT DOUBLE
"mcddl1d_cf_w_0_100_s_0_220" FLOAT DOUBLE
"mcddl1d_ca_w_0_100_s_0_280" FLOAT DOUBLE
"mcddl1d_cc_w_0_100_s_0_280" FLOAT DOUBLE
"mcddl1d_cf_w_0_100_s_0_280" FLOAT DOUBLE
"mcddl1d_ca_w_0_100_s_0_340" FLOAT DOUBLE
"mcddl1d_cc_w_0_100_s_0_340" FLOAT DOUBLE
"mcddl1d_cf_w_0_100_s_0_340" FLOAT DOUBLE
"mcddl1d_ca_w_0_100_s_0_400" FLOAT DOUBLE
"mcddl1d_cc_w_0_100_s_0_400" FLOAT DOUBLE
"mcddl1d_cf_w_0_100_s_0_400" FLOAT DOUBLE
"mcddl1d_ca_w_0_100_s_0_700" FLOAT DOUBLE
"mcddl1d_cc_w_0_100_s_0_700" FLOAT DOUBLE
"mcddl1d_cf_w_0_100_s_0_700" FLOAT DOUBLE
"mcddl1d_ca_w_0_100_s_1_700" FLOAT DOUBLE
"mcddl1d_cc_w_0_100_s_1_700" FLOAT DOUBLE
"mcddl1d_cf_w_0_100_s_1_700" FLOAT DOUBLE
"mcddl1d_ca_w_0_100_s_2_700" FLOAT DOUBLE
"mcddl1d_cc_w_0_100_s_2_700" FLOAT DOUBLE
"mcddl1d_cf_w_0_100_s_2_700" FLOAT DOUBLE
"mcddl1d_ca_w_0_100_s_3_700" FLOAT DOUBLE
"mcddl1d_cc_w_0_100_s_3_700" FLOAT DOUBLE
"mcddl1d_cf_w_0_100_s_3_700" FLOAT DOUBLE
"mcddl1d_ca_w_3_200_s_0_100" FLOAT DOUBLE
"mcddl1d_cc_w_3_200_s_0_100" FLOAT DOUBLE
"mcddl1d_cf_w_3_200_s_0_100" FLOAT DOUBLE
"mcddl1d_ca_w_3_200_s_0_160" FLOAT DOUBLE
"mcddl1d_cc_w_3_200_s_0_160" FLOAT DOUBLE
"mcddl1d_cf_w_3_200_s_0_160" FLOAT DOUBLE
"mcddl1d_ca_w_3_200_s_0_220" FLOAT DOUBLE
"mcddl1d_cc_w_3_200_s_0_220" FLOAT DOUBLE
"mcddl1d_cf_w_3_200_s_0_220" FLOAT DOUBLE
"mcddl1d_ca_w_3_200_s_0_280" FLOAT DOUBLE
"mcddl1d_cc_w_3_200_s_0_280" FLOAT DOUBLE
"mcddl1d_cf_w_3_200_s_0_280" FLOAT DOUBLE
"mcddl1d_ca_w_3_200_s_0_340" FLOAT DOUBLE
"mcddl1d_cc_w_3_200_s_0_340" FLOAT DOUBLE
"mcddl1d_cf_w_3_200_s_0_340" FLOAT DOUBLE
"mcddl1d_ca_w_3_200_s_0_400" FLOAT DOUBLE
"mcddl1d_cc_w_3_200_s_0_400" FLOAT DOUBLE
"mcddl1d_cf_w_3_200_s_0_400" FLOAT DOUBLE
"mcddl1d_ca_w_3_200_s_0_700" FLOAT DOUBLE
"mcddl1d_cc_w_3_200_s_0_700" FLOAT DOUBLE
"mcddl1d_cf_w_3_200_s_0_700" FLOAT DOUBLE
"mcddl1d_ca_w_3_200_s_1_700" FLOAT DOUBLE
"mcddl1d_cc_w_3_200_s_1_700" FLOAT DOUBLE
"mcddl1d_cf_w_3_200_s_1_700" FLOAT DOUBLE
"mcddl1d_ca_w_3_200_s_2_700" FLOAT DOUBLE
"mcddl1d_cc_w_3_200_s_2_700" FLOAT DOUBLE
"mcddl1d_cf_w_3_200_s_2_700" FLOAT DOUBLE
"mcddl1d_ca_w_3_200_s_3_700" FLOAT DOUBLE
"mcddl1d_cc_w_3_200_s_3_700" FLOAT DOUBLE
"mcddl1d_cf_w_3_200_s_3_700" FLOAT DOUBLE
"mcddl1p1_ca_w_0_100_s_0_100" FLOAT DOUBLE
"mcddl1p1_cc_w_0_100_s_0_100" FLOAT DOUBLE
"mcddl1p1_cf_w_0_100_s_0_100" FLOAT DOUBLE
"mcddl1p1_ca_w_0_100_s_0_160" FLOAT DOUBLE
"mcddl1p1_cc_w_0_100_s_0_160" FLOAT DOUBLE
"mcddl1p1_cf_w_0_100_s_0_160" FLOAT DOUBLE
"mcddl1p1_ca_w_0_100_s_0_220" FLOAT DOUBLE
"mcddl1p1_cc_w_0_100_s_0_220" FLOAT DOUBLE
"mcddl1p1_cf_w_0_100_s_0_220" FLOAT DOUBLE
"mcddl1p1_ca_w_0_100_s_0_280" FLOAT DOUBLE
"mcddl1p1_cc_w_0_100_s_0_280" FLOAT DOUBLE
"mcddl1p1_cf_w_0_100_s_0_280" FLOAT DOUBLE
"mcddl1p1_ca_w_0_100_s_0_340" FLOAT DOUBLE
"mcddl1p1_cc_w_0_100_s_0_340" FLOAT DOUBLE
"mcddl1p1_cf_w_0_100_s_0_340" FLOAT DOUBLE
"mcddl1p1_ca_w_0_100_s_0_400" FLOAT DOUBLE
"mcddl1p1_cc_w_0_100_s_0_400" FLOAT DOUBLE
"mcddl1p1_cf_w_0_100_s_0_400" FLOAT DOUBLE
"mcddl1p1_ca_w_0_100_s_0_700" FLOAT DOUBLE
"mcddl1p1_cc_w_0_100_s_0_700" FLOAT DOUBLE
"mcddl1p1_cf_w_0_100_s_0_700" FLOAT DOUBLE
"mcddl1p1_ca_w_0_100_s_1_700" FLOAT DOUBLE
"mcddl1p1_cc_w_0_100_s_1_700" FLOAT DOUBLE
"mcddl1p1_cf_w_0_100_s_1_700" FLOAT DOUBLE
"mcddl1p1_ca_w_0_100_s_2_700" FLOAT DOUBLE
"mcddl1p1_cc_w_0_100_s_2_700" FLOAT DOUBLE
"mcddl1p1_cf_w_0_100_s_2_700" FLOAT DOUBLE
"mcddl1p1_ca_w_0_100_s_3_700" FLOAT DOUBLE
"mcddl1p1_cc_w_0_100_s_3_700" FLOAT DOUBLE
"mcddl1p1_cf_w_0_100_s_3_700" FLOAT DOUBLE
"mcddl1p1_ca_w_3_200_s_0_100" FLOAT DOUBLE
"mcddl1p1_cc_w_3_200_s_0_100" FLOAT DOUBLE
"mcddl1p1_cf_w_3_200_s_0_100" FLOAT DOUBLE
"mcddl1p1_ca_w_3_200_s_0_160" FLOAT DOUBLE
"mcddl1p1_cc_w_3_200_s_0_160" FLOAT DOUBLE
"mcddl1p1_cf_w_3_200_s_0_160" FLOAT DOUBLE
"mcddl1p1_ca_w_3_200_s_0_220" FLOAT DOUBLE
"mcddl1p1_cc_w_3_200_s_0_220" FLOAT DOUBLE
"mcddl1p1_cf_w_3_200_s_0_220" FLOAT DOUBLE
"mcddl1p1_ca_w_3_200_s_0_280" FLOAT DOUBLE
"mcddl1p1_cc_w_3_200_s_0_280" FLOAT DOUBLE
"mcddl1p1_cf_w_3_200_s_0_280" FLOAT DOUBLE
"mcddl1p1_ca_w_3_200_s_0_340" FLOAT DOUBLE
"mcddl1p1_cc_w_3_200_s_0_340" FLOAT DOUBLE
"mcddl1p1_cf_w_3_200_s_0_340" FLOAT DOUBLE
"mcddl1p1_ca_w_3_200_s_0_400" FLOAT DOUBLE
"mcddl1p1_cc_w_3_200_s_0_400" FLOAT DOUBLE
"mcddl1p1_cf_w_3_200_s_0_400" FLOAT DOUBLE
"mcddl1p1_ca_w_3_200_s_0_700" FLOAT DOUBLE
"mcddl1p1_cc_w_3_200_s_0_700" FLOAT DOUBLE
"mcddl1p1_cf_w_3_200_s_0_700" FLOAT DOUBLE
"mcddl1p1_ca_w_3_200_s_1_700" FLOAT DOUBLE
"mcddl1p1_cc_w_3_200_s_1_700" FLOAT DOUBLE
"mcddl1p1_cf_w_3_200_s_1_700" FLOAT DOUBLE
"mcddl1p1_ca_w_3_200_s_2_700" FLOAT DOUBLE
"mcddl1p1_cc_w_3_200_s_2_700" FLOAT DOUBLE
"mcddl1p1_cf_w_3_200_s_2_700" FLOAT DOUBLE
"mcddl1p1_ca_w_3_200_s_3_700" FLOAT DOUBLE
"mcddl1p1_cc_w_3_200_s_3_700" FLOAT DOUBLE
"mcddl1p1_cf_w_3_200_s_3_700" FLOAT DOUBLE
"mcddl1litr_ca_w_0_100_s_0_100" FLOAT DOUBLE
"mcddl1litr_cc_w_0_100_s_0_100" FLOAT DOUBLE
"mcddl1litr_cf_w_0_100_s_0_100" FLOAT DOUBLE
"mcddl1litr_ca_w_0_100_s_0_160" FLOAT DOUBLE
"mcddl1litr_cc_w_0_100_s_0_160" FLOAT DOUBLE
"mcddl1litr_cf_w_0_100_s_0_160" FLOAT DOUBLE
"mcddl1litr_ca_w_0_100_s_0_220" FLOAT DOUBLE
"mcddl1litr_cc_w_0_100_s_0_220" FLOAT DOUBLE
"mcddl1litr_cf_w_0_100_s_0_220" FLOAT DOUBLE
"mcddl1litr_ca_w_0_100_s_0_280" FLOAT DOUBLE
"mcddl1litr_cc_w_0_100_s_0_280" FLOAT DOUBLE
"mcddl1litr_cf_w_0_100_s_0_280" FLOAT DOUBLE
"mcddl1litr_ca_w_0_100_s_0_340" FLOAT DOUBLE
"mcddl1litr_cc_w_0_100_s_0_340" FLOAT DOUBLE
"mcddl1litr_cf_w_0_100_s_0_340" FLOAT DOUBLE
"mcddl1litr_ca_w_0_100_s_0_400" FLOAT DOUBLE
"mcddl1litr_cc_w_0_100_s_0_400" FLOAT DOUBLE
"mcddl1litr_cf_w_0_100_s_0_400" FLOAT DOUBLE
"mcddl1litr_ca_w_0_100_s_0_700" FLOAT DOUBLE
"mcddl1litr_cc_w_0_100_s_0_700" FLOAT DOUBLE
"mcddl1litr_cf_w_0_100_s_0_700" FLOAT DOUBLE
"mcddl1litr_ca_w_0_100_s_1_700" FLOAT DOUBLE
"mcddl1litr_cc_w_0_100_s_1_700" FLOAT DOUBLE
"mcddl1litr_cf_w_0_100_s_1_700" FLOAT DOUBLE
"mcddl1litr_ca_w_0_100_s_2_700" FLOAT DOUBLE
"mcddl1litr_cc_w_0_100_s_2_700" FLOAT DOUBLE
"mcddl1litr_cf_w_0_100_s_2_700" FLOAT DOUBLE
"mcddl1litr_ca_w_0_100_s_3_700" FLOAT DOUBLE
"mcddl1litr_cc_w_0_100_s_3_700" FLOAT DOUBLE
"mcddl1litr_cf_w_0_100_s_3_700" FLOAT DOUBLE
"mcddl1litr_ca_w_3_200_s_0_100" FLOAT DOUBLE
"mcddl1litr_cc_w_3_200_s_0_100" FLOAT DOUBLE
"mcddl1litr_cf_w_3_200_s_0_100" FLOAT DOUBLE
"mcddl1litr_ca_w_3_200_s_0_160" FLOAT DOUBLE
"mcddl1litr_cc_w_3_200_s_0_160" FLOAT DOUBLE
"mcddl1litr_cf_w_3_200_s_0_160" FLOAT DOUBLE
"mcddl1litr_ca_w_3_200_s_0_220" FLOAT DOUBLE
"mcddl1litr_cc_w_3_200_s_0_220" FLOAT DOUBLE
"mcddl1litr_cf_w_3_200_s_0_220" FLOAT DOUBLE
"mcddl1litr_ca_w_3_200_s_0_280" FLOAT DOUBLE
"mcddl1litr_cc_w_3_200_s_0_280" FLOAT DOUBLE
"mcddl1litr_cf_w_3_200_s_0_280" FLOAT DOUBLE
"mcddl1litr_ca_w_3_200_s_0_340" FLOAT DOUBLE
"mcddl1litr_cc_w_3_200_s_0_340" FLOAT DOUBLE
"mcddl1litr_cf_w_3_200_s_0_340" FLOAT DOUBLE
"mcddl1litr_ca_w_3_200_s_0_400" FLOAT DOUBLE
"mcddl1litr_cc_w_3_200_s_0_400" FLOAT DOUBLE
"mcddl1litr_cf_w_3_200_s_0_400" FLOAT DOUBLE
"mcddl1litr_ca_w_3_200_s_0_700" FLOAT DOUBLE
"mcddl1litr_cc_w_3_200_s_0_700" FLOAT DOUBLE
"mcddl1litr_cf_w_3_200_s_0_700" FLOAT DOUBLE
"mcddl1litr_ca_w_3_200_s_1_700" FLOAT DOUBLE
"mcddl1litr_cc_w_3_200_s_1_700" FLOAT DOUBLE
"mcddl1litr_cf_w_3_200_s_1_700" FLOAT DOUBLE
"mcddl1litr_ca_w_3_200_s_2_700" FLOAT DOUBLE
"mcddl1litr_cc_w_3_200_s_2_700" FLOAT DOUBLE
"mcddl1litr_cf_w_3_200_s_2_700" FLOAT DOUBLE
"mcddl1litr_ca_w_3_200_s_3_700" FLOAT DOUBLE
"mcddl1litr_cc_w_3_200_s_3_700" FLOAT DOUBLE
"mcddl1litr_cf_w_3_200_s_3_700" FLOAT DOUBLE
"mcm1f_ca_w_0_140_s_0_140" FLOAT DOUBLE
"mcm1f_cc_w_0_140_s_0_140" FLOAT DOUBLE
"mcm1f_cf_w_0_140_s_0_140" FLOAT DOUBLE
"mcm1f_ca_w_0_140_s_0_200" FLOAT DOUBLE
"mcm1f_cc_w_0_140_s_0_200" FLOAT DOUBLE
"mcm1f_cf_w_0_140_s_0_200" FLOAT DOUBLE
"mcm1f_ca_w_0_140_s_0_260" FLOAT DOUBLE
"mcm1f_cc_w_0_140_s_0_260" FLOAT DOUBLE
"mcm1f_cf_w_0_140_s_0_260" FLOAT DOUBLE
"mcm1f_ca_w_0_140_s_0_320" FLOAT DOUBLE
"mcm1f_cc_w_0_140_s_0_320" FLOAT DOUBLE
"mcm1f_cf_w_0_140_s_0_320" FLOAT DOUBLE
"mcm1f_ca_w_0_140_s_0_380" FLOAT DOUBLE
"mcm1f_cc_w_0_140_s_0_380" FLOAT DOUBLE
"mcm1f_cf_w_0_140_s_0_380" FLOAT DOUBLE
"mcm1f_ca_w_0_140_s_0_440" FLOAT DOUBLE
"mcm1f_cc_w_0_140_s_0_440" FLOAT DOUBLE
"mcm1f_cf_w_0_140_s_0_440" FLOAT DOUBLE
"mcm1f_ca_w_0_140_s_0_740" FLOAT DOUBLE
"mcm1f_cc_w_0_140_s_0_740" FLOAT DOUBLE
"mcm1f_cf_w_0_140_s_0_740" FLOAT DOUBLE
"mcm1f_ca_w_0_140_s_1_740" FLOAT DOUBLE
"mcm1f_cc_w_0_140_s_1_740" FLOAT DOUBLE
"mcm1f_cf_w_0_140_s_1_740" FLOAT DOUBLE
"mcm1f_ca_w_0_140_s_2_740" FLOAT DOUBLE
"mcm1f_cc_w_0_140_s_2_740" FLOAT DOUBLE
"mcm1f_cf_w_0_140_s_2_740" FLOAT DOUBLE
"mcm1f_ca_w_0_140_s_3_740" FLOAT DOUBLE
"mcm1f_cc_w_0_140_s_3_740" FLOAT DOUBLE
"mcm1f_cf_w_0_140_s_3_740" FLOAT DOUBLE
"mcm1f_ca_w_4_480_s_0_140" FLOAT DOUBLE
"mcm1f_cc_w_4_480_s_0_140" FLOAT DOUBLE
"mcm1f_cf_w_4_480_s_0_140" FLOAT DOUBLE
"mcm1f_ca_w_4_480_s_0_200" FLOAT DOUBLE
"mcm1f_cc_w_4_480_s_0_200" FLOAT DOUBLE
"mcm1f_cf_w_4_480_s_0_200" FLOAT DOUBLE
"mcm1f_ca_w_4_480_s_0_260" FLOAT DOUBLE
"mcm1f_cc_w_4_480_s_0_260" FLOAT DOUBLE
"mcm1f_cf_w_4_480_s_0_260" FLOAT DOUBLE
"mcm1f_ca_w_4_480_s_0_320" FLOAT DOUBLE
"mcm1f_cc_w_4_480_s_0_320" FLOAT DOUBLE
"mcm1f_cf_w_4_480_s_0_320" FLOAT DOUBLE
"mcm1f_ca_w_4_480_s_0_380" FLOAT DOUBLE
"mcm1f_cc_w_4_480_s_0_380" FLOAT DOUBLE
"mcm1f_cf_w_4_480_s_0_380" FLOAT DOUBLE
"mcm1f_ca_w_4_480_s_0_440" FLOAT DOUBLE
"mcm1f_cc_w_4_480_s_0_440" FLOAT DOUBLE
"mcm1f_cf_w_4_480_s_0_440" FLOAT DOUBLE
"mcm1f_ca_w_4_480_s_0_740" FLOAT DOUBLE
"mcm1f_cc_w_4_480_s_0_740" FLOAT DOUBLE
"mcm1f_cf_w_4_480_s_0_740" FLOAT DOUBLE
"mcm1f_ca_w_4_480_s_1_740" FLOAT DOUBLE
"mcm1f_cc_w_4_480_s_1_740" FLOAT DOUBLE
"mcm1f_cf_w_4_480_s_1_740" FLOAT DOUBLE
"mcm1f_ca_w_4_480_s_2_740" FLOAT DOUBLE
"mcm1f_cc_w_4_480_s_2_740" FLOAT DOUBLE
"mcm1f_cf_w_4_480_s_2_740" FLOAT DOUBLE
"mcm1f_ca_w_4_480_s_3_740" FLOAT DOUBLE
"mcm1f_cc_w_4_480_s_3_740" FLOAT DOUBLE
"mcm1f_cf_w_4_480_s_3_740" FLOAT DOUBLE
"mcm1d_ca_w_0_140_s_0_140" FLOAT DOUBLE
"mcm1d_cc_w_0_140_s_0_140" FLOAT DOUBLE
"mcm1d_cf_w_0_140_s_0_140" FLOAT DOUBLE
"mcm1d_ca_w_0_140_s_0_200" FLOAT DOUBLE
"mcm1d_cc_w_0_140_s_0_200" FLOAT DOUBLE
"mcm1d_cf_w_0_140_s_0_200" FLOAT DOUBLE
"mcm1d_ca_w_0_140_s_0_260" FLOAT DOUBLE
"mcm1d_cc_w_0_140_s_0_260" FLOAT DOUBLE
"mcm1d_cf_w_0_140_s_0_260" FLOAT DOUBLE
"mcm1d_ca_w_0_140_s_0_320" FLOAT DOUBLE
"mcm1d_cc_w_0_140_s_0_320" FLOAT DOUBLE
"mcm1d_cf_w_0_140_s_0_320" FLOAT DOUBLE
"mcm1d_ca_w_0_140_s_0_380" FLOAT DOUBLE
"mcm1d_cc_w_0_140_s_0_380" FLOAT DOUBLE
"mcm1d_cf_w_0_140_s_0_380" FLOAT DOUBLE
"mcm1d_ca_w_0_140_s_0_440" FLOAT DOUBLE
"mcm1d_cc_w_0_140_s_0_440" FLOAT DOUBLE
"mcm1d_cf_w_0_140_s_0_440" FLOAT DOUBLE
"mcm1d_ca_w_0_140_s_0_740" FLOAT DOUBLE
"mcm1d_cc_w_0_140_s_0_740" FLOAT DOUBLE
"mcm1d_cf_w_0_140_s_0_740" FLOAT DOUBLE
"mcm1d_ca_w_0_140_s_1_740" FLOAT DOUBLE
"mcm1d_cc_w_0_140_s_1_740" FLOAT DOUBLE
"mcm1d_cf_w_0_140_s_1_740" FLOAT DOUBLE
"mcm1d_ca_w_0_140_s_2_740" FLOAT DOUBLE
"mcm1d_cc_w_0_140_s_2_740" FLOAT DOUBLE
"mcm1d_cf_w_0_140_s_2_740" FLOAT DOUBLE
"mcm1d_ca_w_0_140_s_3_740" FLOAT DOUBLE
"mcm1d_cc_w_0_140_s_3_740" FLOAT DOUBLE
"mcm1d_cf_w_0_140_s_3_740" FLOAT DOUBLE
"mcm1d_ca_w_4_480_s_0_140" FLOAT DOUBLE
"mcm1d_cc_w_4_480_s_0_140" FLOAT DOUBLE
"mcm1d_cf_w_4_480_s_0_140" FLOAT DOUBLE
"mcm1d_ca_w_4_480_s_0_200" FLOAT DOUBLE
"mcm1d_cc_w_4_480_s_0_200" FLOAT DOUBLE
"mcm1d_cf_w_4_480_s_0_200" FLOAT DOUBLE
"mcm1d_ca_w_4_480_s_0_260" FLOAT DOUBLE
"mcm1d_cc_w_4_480_s_0_260" FLOAT DOUBLE
"mcm1d_cf_w_4_480_s_0_260" FLOAT DOUBLE
"mcm1d_ca_w_4_480_s_0_320" FLOAT DOUBLE
"mcm1d_cc_w_4_480_s_0_320" FLOAT DOUBLE
"mcm1d_cf_w_4_480_s_0_320" FLOAT DOUBLE
"mcm1d_ca_w_4_480_s_0_380" FLOAT DOUBLE
"mcm1d_cc_w_4_480_s_0_380" FLOAT DOUBLE
"mcm1d_cf_w_4_480_s_0_380" FLOAT DOUBLE
"mcm1d_ca_w_4_480_s_0_440" FLOAT DOUBLE
"mcm1d_cc_w_4_480_s_0_440" FLOAT DOUBLE
"mcm1d_cf_w_4_480_s_0_440" FLOAT DOUBLE
"mcm1d_ca_w_4_480_s_0_740" FLOAT DOUBLE
"mcm1d_cc_w_4_480_s_0_740" FLOAT DOUBLE
"mcm1d_cf_w_4_480_s_0_740" FLOAT DOUBLE
"mcm1d_ca_w_4_480_s_1_740" FLOAT DOUBLE
"mcm1d_cc_w_4_480_s_1_740" FLOAT DOUBLE
"mcm1d_cf_w_4_480_s_1_740" FLOAT DOUBLE
"mcm1d_ca_w_4_480_s_2_740" FLOAT DOUBLE
"mcm1d_cc_w_4_480_s_2_740" FLOAT DOUBLE
"mcm1d_cf_w_4_480_s_2_740" FLOAT DOUBLE
"mcm1d_ca_w_4_480_s_3_740" FLOAT DOUBLE
"mcm1d_cc_w_4_480_s_3_740" FLOAT DOUBLE
"mcm1d_cf_w_4_480_s_3_740" FLOAT DOUBLE
"mcm1p1_ca_w_0_140_s_0_140" FLOAT DOUBLE
"mcm1p1_cc_w_0_140_s_0_140" FLOAT DOUBLE
"mcm1p1_cf_w_0_140_s_0_140" FLOAT DOUBLE
"mcm1p1_ca_w_0_140_s_0_200" FLOAT DOUBLE
"mcm1p1_cc_w_0_140_s_0_200" FLOAT DOUBLE
"mcm1p1_cf_w_0_140_s_0_200" FLOAT DOUBLE
"mcm1p1_ca_w_0_140_s_0_260" FLOAT DOUBLE
"mcm1p1_cc_w_0_140_s_0_260" FLOAT DOUBLE
"mcm1p1_cf_w_0_140_s_0_260" FLOAT DOUBLE
"mcm1p1_ca_w_0_140_s_0_320" FLOAT DOUBLE
"mcm1p1_cc_w_0_140_s_0_320" FLOAT DOUBLE
"mcm1p1_cf_w_0_140_s_0_320" FLOAT DOUBLE
"mcm1p1_ca_w_0_140_s_0_380" FLOAT DOUBLE
"mcm1p1_cc_w_0_140_s_0_380" FLOAT DOUBLE
"mcm1p1_cf_w_0_140_s_0_380" FLOAT DOUBLE
"mcm1p1_ca_w_0_140_s_0_440" FLOAT DOUBLE
"mcm1p1_cc_w_0_140_s_0_440" FLOAT DOUBLE
"mcm1p1_cf_w_0_140_s_0_440" FLOAT DOUBLE
"mcm1p1_ca_w_0_140_s_0_740" FLOAT DOUBLE
"mcm1p1_cc_w_0_140_s_0_740" FLOAT DOUBLE
"mcm1p1_cf_w_0_140_s_0_740" FLOAT DOUBLE
"mcm1p1_ca_w_0_140_s_1_740" FLOAT DOUBLE
"mcm1p1_cc_w_0_140_s_1_740" FLOAT DOUBLE
"mcm1p1_cf_w_0_140_s_1_740" FLOAT DOUBLE
"mcm1p1_ca_w_0_140_s_2_740" FLOAT DOUBLE
"mcm1p1_cc_w_0_140_s_2_740" FLOAT DOUBLE
"mcm1p1_cf_w_0_140_s_2_740" FLOAT DOUBLE
"mcm1p1_ca_w_0_140_s_3_740" FLOAT DOUBLE
"mcm1p1_cc_w_0_140_s_3_740" FLOAT DOUBLE
"mcm1p1_cf_w_0_140_s_3_740" FLOAT DOUBLE
"mcm1p1_ca_w_4_480_s_0_140" FLOAT DOUBLE
"mcm1p1_cc_w_4_480_s_0_140" FLOAT DOUBLE
"mcm1p1_cf_w_4_480_s_0_140" FLOAT DOUBLE
"mcm1p1_ca_w_4_480_s_0_200" FLOAT DOUBLE
"mcm1p1_cc_w_4_480_s_0_200" FLOAT DOUBLE
"mcm1p1_cf_w_4_480_s_0_200" FLOAT DOUBLE
"mcm1p1_ca_w_4_480_s_0_260" FLOAT DOUBLE
"mcm1p1_cc_w_4_480_s_0_260" FLOAT DOUBLE
"mcm1p1_cf_w_4_480_s_0_260" FLOAT DOUBLE
"mcm1p1_ca_w_4_480_s_0_320" FLOAT DOUBLE
"mcm1p1_cc_w_4_480_s_0_320" FLOAT DOUBLE
"mcm1p1_cf_w_4_480_s_0_320" FLOAT DOUBLE
"mcm1p1_ca_w_4_480_s_0_380" FLOAT DOUBLE
"mcm1p1_cc_w_4_480_s_0_380" FLOAT DOUBLE
"mcm1p1_cf_w_4_480_s_0_380" FLOAT DOUBLE
"mcm1p1_ca_w_4_480_s_0_440" FLOAT DOUBLE
"mcm1p1_cc_w_4_480_s_0_440" FLOAT DOUBLE
"mcm1p1_cf_w_4_480_s_0_440" FLOAT DOUBLE
"mcm1p1_ca_w_4_480_s_0_740" FLOAT DOUBLE
"mcm1p1_cc_w_4_480_s_0_740" FLOAT DOUBLE
"mcm1p1_cf_w_4_480_s_0_740" FLOAT DOUBLE
"mcm1p1_ca_w_4_480_s_1_740" FLOAT DOUBLE
"mcm1p1_cc_w_4_480_s_1_740" FLOAT DOUBLE
"mcm1p1_cf_w_4_480_s_1_740" FLOAT DOUBLE
"mcm1p1_ca_w_4_480_s_2_740" FLOAT DOUBLE
"mcm1p1_cc_w_4_480_s_2_740" FLOAT DOUBLE
"mcm1p1_cf_w_4_480_s_2_740" FLOAT DOUBLE
"mcm1p1_ca_w_4_480_s_3_740" FLOAT DOUBLE
"mcm1p1_cc_w_4_480_s_3_740" FLOAT DOUBLE
"mcm1p1_cf_w_4_480_s_3_740" FLOAT DOUBLE
"mcm1litr_ca_w_0_140_s_0_140" FLOAT DOUBLE
"mcm1litr_cc_w_0_140_s_0_140" FLOAT DOUBLE
"mcm1litr_cf_w_0_140_s_0_140" FLOAT DOUBLE
"mcm1litr_ca_w_0_140_s_0_200" FLOAT DOUBLE
"mcm1litr_cc_w_0_140_s_0_200" FLOAT DOUBLE